/*--------------------------------*- C++ -*----------------------------------*\
| =========                 |                                                 |
| \\      /  F ield         | OpenFOAM: The Open Source CFD Toolbox           |
|  \\    /   O peration     | Version:  2312                                  |
|   \\  /    A nd           | Website:  www.openfoam.com                      |
|    \\/     M anipulation  |                                                 |
\*---------------------------------------------------------------------------*/
FoamFile
{
    version     2.0;
    format      ascii;
    class       areaVectorField;
    location    "0";
    object      surfDisplacement;
}
// * * * * * * * * * * * * * * * * * * * * * * * * * * * * * * * * * * * * * //

dimensions      [0 1 0 0 0 0 0];

internalField   nonuniform List<vector> 
683
(
(-6.123230e-18 -0.000000e+00 -0.000000e+00)
(-6.123230e-18 -0.000000e+00 -0.000000e+00)
(-6.123230e-18 -0.000000e+00 -0.000000e+00)
(-6.123230e-18 -0.000000e+00 -0.000000e+00)
(-6.123230e-18 -0.000000e+00 -0.000000e+00)
(-6.123230e-18 -0.000000e+00 -0.000000e+00)
(-1.185341e-18 -0.000000e+00 -0.000000e+00)
(-2.403436e-18 -0.000000e+00 -0.000000e+00)
(-3.621531e-18 -0.000000e+00 -0.000000e+00)
(-4.839626e-18 -0.000000e+00 -0.000000e+00)
(-6.057721e-18 -0.000000e+00 -0.000000e+00)
(3.678712e-18 -0.000000e+00 -0.000000e+00)
(1.095256e-18 -0.000000e+00 -0.000000e+00)
(-1.488200e-18 -0.000000e+00 -0.000000e+00)
(-4.071656e-18 -0.000000e+00 -0.000000e+00)
(5.570146e-18 -0.000000e+00 -0.000000e+00)
(2.883705e-18 -0.000000e+00 -0.000000e+00)
(1.972653e-19 -0.000000e+00 -0.000000e+00)
(-2.489175e-18 -0.000000e+00 -0.000000e+00)
(-5.175615e-18 -0.000000e+00 -0.000000e+00)
(4.315302e-18 -0.000000e+00 -0.000000e+00)
(1.522100e-18 -0.000000e+00 -0.000000e+00)
(-1.271103e-18 -0.000000e+00 -0.000000e+00)
(-4.064305e-18 -0.000000e+00 -0.000000e+00)
(5.359721e-18 -0.000000e+00 -0.000000e+00)
(2.455322e-18 -0.000000e+00 -0.000000e+00)
(-4.490783e-19 -0.000000e+00 -0.000000e+00)
(-3.353478e-18 -0.000000e+00 -0.000000e+00)
(5.983220e-18 -0.000000e+00 -0.000000e+00)
(2.963161e-18 -0.000000e+00 -0.000000e+00)
(-5.689791e-20 -0.000000e+00 -0.000000e+00)
(-3.076957e-18 -0.000000e+00 -0.000000e+00)
(-6.097016e-18 -0.000000e+00 -0.000000e+00)
(3.010320e-18 -0.000000e+00 -0.000000e+00)
(-1.298459e-19 -0.000000e+00 -0.000000e+00)
(-3.270012e-18 -0.000000e+00 -0.000000e+00)
(5.824853e-18 -0.000000e+00 -0.000000e+00)
(2.559618e-18 -0.000000e+00 -0.000000e+00)
(-7.056173e-19 -0.000000e+00 -0.000000e+00)
(-3.970852e-18 -0.000000e+00 -0.000000e+00)
(4.966048e-18 -0.000000e+00 -0.000000e+00)
(1.570762e-18 -0.000000e+00 -0.000000e+00)
(-1.824525e-18 -0.000000e+00 -0.000000e+00)
(-5.219812e-18 -0.000000e+00 -0.000000e+00)
(3.532439e-18 -0.000000e+00 -0.000000e+00)
(2.365149e-21 -0.000000e+00 -0.000000e+00)
(-3.527708e-18 -0.000000e+00 -0.000000e+00)
(5.151392e-18 -0.000000e+00 -0.000000e+00)
(1.480479e-18 -0.000000e+00 -0.000000e+00)
(-2.190434e-18 -0.000000e+00 -0.000000e+00)
(-5.861347e-18 -0.000000e+00 -0.000000e+00)
(2.610005e-18 -0.000000e+00 -0.000000e+00)
(-1.173107e-18 -0.000000e+00 -0.000000e+00)
(-4.956220e-18 -0.000000e+00 -0.000000e+00)
(3.348129e-18 -0.000000e+00 -0.000000e+00)
(-6.557596e-19 -0.000000e+00 -0.000000e+00)
(-4.659648e-18 -0.000000e+00 -0.000000e+00)
(3.504972e-18 -0.000000e+00 -0.000000e+00)
(-6.217774e-19 -0.000000e+00 -0.000000e+00)
(-4.748527e-18 -0.000000e+00 -0.000000e+00)
(3.236387e-18 -0.000000e+00 -0.000000e+00)
(-1.092492e-18 -0.000000e+00 -0.000000e+00)
(-5.421370e-18 -0.000000e+00 -0.000000e+00)
(2.452650e-18 -0.000000e+00 -0.000000e+00)
(-1.929821e-18 -0.000000e+00 -0.000000e+00)
(5.916715e-18 -0.000000e+00 -0.000000e+00)
(1.277131e-18 -0.000000e+00 -0.000000e+00)
(-3.362453e-18 -0.000000e+00 -0.000000e+00)
(4.147263e-18 -0.000000e+00 -0.000000e+00)
(-7.191623e-19 -0.000000e+00 -0.000000e+00)
(-5.585587e-18 -0.000000e+00 -0.000000e+00)
(1.661545e-18 -0.000000e+00 -0.000000e+00)
(-3.354289e-18 -0.000000e+00 -0.000000e+00)
(3.786865e-18 -0.000000e+00 -0.000000e+00)
(-1.428700e-18 -0.000000e+00 -0.000000e+00)
(5.581433e-18 -0.000000e+00 -0.000000e+00)
(1.580377e-19 -0.000000e+00 -0.000000e+00)
(-5.265357e-18 -0.000000e+00 -0.000000e+00)
(1.376419e-18 -0.000000e+00 -0.000000e+00)
(-4.262330e-18 -0.000000e+00 -0.000000e+00)
(2.194968e-18 -0.000000e+00 -0.000000e+00)
(-3.668286e-18 -0.000000e+00 -0.000000e+00)
(2.579036e-18 -0.000000e+00 -0.000000e+00)
(-3.517976e-18 -0.000000e+00 -0.000000e+00)
(2.492691e-18 -0.000000e+00 -0.000000e+00)
(-3.846647e-18 -0.000000e+00 -0.000000e+00)
(1.898831e-18 -0.000000e+00 -0.000000e+00)
(-4.692730e-18 -0.000000e+00 -0.000000e+00)
(7.569223e-19 -0.000000e+00 -0.000000e+00)
(-6.096775e-18 -0.000000e+00 -0.000000e+00)
(-9.767518e-19 -0.000000e+00 -0.000000e+00)
(4.063628e-18 -0.000000e+00 -0.000000e+00)
(-3.346613e-18 -0.000000e+00 -0.000000e+00)
(1.305544e-18 -0.000000e+00 -0.000000e+00)
(5.836368e-18 -0.000000e+00 -0.000000e+00)
(-2.176548e-18 -0.000000e+00 -0.000000e+00)
(1.895734e-18 -0.000000e+00 -0.000000e+00)
(5.799076e-18 -0.000000e+00 -0.000000e+00)
(-2.863502e-18 -0.000000e+00 -0.000000e+00)
(5.062240e-19 -0.000000e+00 -0.000000e+00)
(3.651571e-18 -0.000000e+00 -0.000000e+00)
(-5.715033e-18 -0.000000e+00 -0.000000e+00)
(-3.190943e-18 -0.000000e+00 -0.000000e+00)
(-9.529389e-19 -0.000000e+00 -0.000000e+00)
(9.710706e-19 -0.000000e+00 -0.000000e+00)
(2.551601e-18 -0.000000e+00 -0.000000e+00)
(3.758632e-18 -0.000000e+00 -0.000000e+00)
(4.561796e-18 -0.000000e+00 -0.000000e+00)
(4.926226e-18 -0.000000e+00 -0.000000e+00)
(4.815405e-18 -0.000000e+00 -0.000000e+00)
(4.156611e-18 -0.000000e+00 -0.000000e+00)
(2.848214e-18 -0.000000e+00 -0.000000e+00)
(1.232657e-18 -0.000000e+00 -0.000000e+00)
(-1.187798e-18 -0.000000e+00 -0.000000e+00)
(-4.484831e-18 -0.000000e+00 -0.000000e+00)
(4.010290e-18 -0.000000e+00 -0.000000e+00)
(-7.041888e-19 -0.000000e+00 -0.000000e+00)
(5.667818e-18 -0.000000e+00 -0.000000e+00)
(-1.066851e-04 -0.000000e+00 -0.000000e+00)
(-4.820666e-04 -0.000000e+00 -0.000000e+00)
(-8.551499e-04 -0.000000e+00 -0.000000e+00)
(-1.519923e-03 -0.000000e+00 -0.000000e+00)
(-2.218649e-03 -0.000000e+00 -0.000000e+00)
(-3.496967e-03 -0.000000e+00 -0.000000e+00)
(-4.948794e-03 -0.000000e+00 -0.000000e+00)
(-6.165576e-03 -0.000000e+00 -0.000000e+00)
(-7.259078e-03 -0.000000e+00 -0.000000e+00)
(-8.174409e-03 -0.000000e+00 -0.000000e+00)
(-8.834665e-03 -0.000000e+00 -0.000000e+00)
(-9.381893e-03 -0.000000e+00 -0.000000e+00)
(-9.754688e-03 -0.000000e+00 -0.000000e+00)
(-9.905602e-03 -0.000000e+00 -0.000000e+00)
(-1.000000e-02 0.000000e+00 0.000000e+00)
(-9.905612e-03 0.000000e+00 0.000000e+00)
(-9.754284e-03 0.000000e+00 0.000000e+00)
(-9.380104e-03 0.000000e+00 0.000000e+00)
(-8.835449e-03 0.000000e+00 0.000000e+00)
(-8.174487e-03 0.000000e+00 0.000000e+00)
(-7.256441e-03 0.000000e+00 0.000000e+00)
(-6.165568e-03 0.000000e+00 0.000000e+00)
(-4.947580e-03 0.000000e+00 0.000000e+00)
(-3.496978e-03 0.000000e+00 0.000000e+00)
(-2.024874e-03 0.000000e+00 0.000000e+00)
(-5.198079e-04 0.000000e+00 0.000000e+00)
(1.043765e-03 0.000000e+00 0.000000e+00)
(3.023698e-03 0.000000e+00 0.000000e+00)
(4.558893e-03 0.000000e+00 0.000000e+00)
(6.081263e-03 0.000000e+00 0.000000e+00)
(7.254698e-03 0.000000e+00 0.000000e+00)
(8.192396e-03 0.000000e+00 0.000000e+00)
(8.835431e-03 0.000000e+00 0.000000e+00)
(9.372307e-03 0.000000e+00 0.000000e+00)
(9.760262e-03 0.000000e+00 0.000000e+00)
(9.907236e-03 0.000000e+00 0.000000e+00)
(9.999990e-03 0.000000e+00 0.000000e+00)
(9.906555e-03 0.000000e+00 0.000000e+00)
(9.775282e-03 0.000000e+00 0.000000e+00)
(9.375244e-03 0.000000e+00 0.000000e+00)
(8.835730e-03 0.000000e+00 0.000000e+00)
(8.184938e-03 0.000000e+00 0.000000e+00)
(7.253356e-03 0.000000e+00 0.000000e+00)
(6.087318e-03 0.000000e+00 0.000000e+00)
(4.636889e-03 0.000000e+00 0.000000e+00)
(3.496944e-03 0.000000e+00 0.000000e+00)
(2.218757e-03 0.000000e+00 0.000000e+00)
(6.123230e-18 0.000000e+00 0.000000e+00)
(-4.512477e-18 0.000000e+00 0.000000e+00)
(-2.901724e-18 0.000000e+00 0.000000e+00)
(-1.290971e-18 0.000000e+00 0.000000e+00)
(3.197818e-19 0.000000e+00 0.000000e+00)
(1.930535e-18 0.000000e+00 0.000000e+00)
(3.541288e-18 0.000000e+00 0.000000e+00)
(5.152041e-18 0.000000e+00 0.000000e+00)
(-5.483666e-18 0.000000e+00 0.000000e+00)
(-3.872913e-18 0.000000e+00 0.000000e+00)
(-2.262160e-18 0.000000e+00 0.000000e+00)
(-6.514074e-19 0.000000e+00 0.000000e+00)
(9.593455e-19 0.000000e+00 0.000000e+00)
(2.570098e-18 0.000000e+00 0.000000e+00)
(4.180851e-18 0.000000e+00 0.000000e+00)
(5.791604e-18 0.000000e+00 0.000000e+00)
(-4.844103e-18 0.000000e+00 0.000000e+00)
(-3.233350e-18 0.000000e+00 0.000000e+00)
(-1.622597e-18 0.000000e+00 0.000000e+00)
(-1.184377e-20 0.000000e+00 0.000000e+00)
(1.598909e-18 0.000000e+00 0.000000e+00)
(3.209662e-18 0.000000e+00 0.000000e+00)
(4.820415e-18 0.000000e+00 0.000000e+00)
(-5.815292e-18 0.000000e+00 0.000000e+00)
(-4.204539e-18 0.000000e+00 0.000000e+00)
(-2.593786e-18 0.000000e+00 0.000000e+00)
(-9.830331e-19 0.000000e+00 0.000000e+00)
(6.277199e-19 0.000000e+00 0.000000e+00)
(2.238473e-18 0.000000e+00 0.000000e+00)
(3.849226e-18 0.000000e+00 0.000000e+00)
(5.459979e-18 0.000000e+00 0.000000e+00)
(-5.175728e-18 0.000000e+00 0.000000e+00)
(-3.564975e-18 0.000000e+00 0.000000e+00)
(-1.954222e-18 0.000000e+00 0.000000e+00)
(-3.434694e-19 0.000000e+00 0.000000e+00)
(1.267284e-18 0.000000e+00 0.000000e+00)
(2.878037e-18 0.000000e+00 0.000000e+00)
(4.488789e-18 0.000000e+00 0.000000e+00)
(6.099542e-18 0.000000e+00 0.000000e+00)
(-4.536165e-18 0.000000e+00 0.000000e+00)
(-2.925412e-18 0.000000e+00 0.000000e+00)
(-1.314659e-18 0.000000e+00 0.000000e+00)
(2.960943e-19 0.000000e+00 0.000000e+00)
(1.906847e-18 0.000000e+00 0.000000e+00)
(3.517600e-18 0.000000e+00 0.000000e+00)
(5.128353e-18 0.000000e+00 0.000000e+00)
(-5.507354e-18 0.000000e+00 0.000000e+00)
(-3.896601e-18 0.000000e+00 0.000000e+00)
(-2.285848e-18 0.000000e+00 0.000000e+00)
(-6.750950e-19 0.000000e+00 0.000000e+00)
(9.356580e-19 0.000000e+00 0.000000e+00)
(2.546411e-18 0.000000e+00 0.000000e+00)
(4.157164e-18 0.000000e+00 0.000000e+00)
(5.767917e-18 0.000000e+00 0.000000e+00)
(-4.867790e-18 0.000000e+00 0.000000e+00)
(-3.257037e-18 0.000000e+00 0.000000e+00)
(-1.646284e-18 0.000000e+00 0.000000e+00)
(-3.553132e-20 0.000000e+00 0.000000e+00)
(1.575222e-18 0.000000e+00 0.000000e+00)
(3.185975e-18 0.000000e+00 0.000000e+00)
(4.796728e-18 0.000000e+00 0.000000e+00)
(-5.838979e-18 0.000000e+00 0.000000e+00)
(-4.228227e-18 0.000000e+00 0.000000e+00)
(-2.617474e-18 0.000000e+00 0.000000e+00)
(-1.006721e-18 0.000000e+00 0.000000e+00)
(6.040324e-19 0.000000e+00 0.000000e+00)
(2.214785e-18 0.000000e+00 0.000000e+00)
(3.825538e-18 0.000000e+00 0.000000e+00)
(5.436291e-18 0.000000e+00 0.000000e+00)
(-5.199416e-18 0.000000e+00 0.000000e+00)
(-3.588663e-18 0.000000e+00 0.000000e+00)
(-1.977910e-18 0.000000e+00 0.000000e+00)
(-3.671569e-19 0.000000e+00 0.000000e+00)
(1.243596e-18 0.000000e+00 0.000000e+00)
(2.854349e-18 0.000000e+00 0.000000e+00)
(4.465102e-18 0.000000e+00 0.000000e+00)
(6.075855e-18 0.000000e+00 0.000000e+00)
(-4.559852e-18 0.000000e+00 0.000000e+00)
(-2.949099e-18 0.000000e+00 0.000000e+00)
(-1.338346e-18 0.000000e+00 0.000000e+00)
(2.724068e-19 0.000000e+00 0.000000e+00)
(1.883160e-18 0.000000e+00 0.000000e+00)
(3.493913e-18 0.000000e+00 0.000000e+00)
(5.104666e-18 0.000000e+00 0.000000e+00)
(-5.531041e-18 0.000000e+00 0.000000e+00)
(-3.920288e-18 0.000000e+00 0.000000e+00)
(-2.309535e-18 0.000000e+00 0.000000e+00)
(-6.987825e-19 0.000000e+00 0.000000e+00)
(9.119704e-19 0.000000e+00 0.000000e+00)
(2.522723e-18 0.000000e+00 0.000000e+00)
(4.133476e-18 0.000000e+00 0.000000e+00)
(5.744229e-18 0.000000e+00 0.000000e+00)
(-4.891478e-18 0.000000e+00 0.000000e+00)
(-3.280725e-18 0.000000e+00 0.000000e+00)
(-1.669972e-18 0.000000e+00 0.000000e+00)
(-5.921886e-20 0.000000e+00 0.000000e+00)
(1.551534e-18 0.000000e+00 0.000000e+00)
(3.162287e-18 0.000000e+00 0.000000e+00)
(4.773040e-18 0.000000e+00 0.000000e+00)
(-5.862667e-18 0.000000e+00 0.000000e+00)
(-4.251914e-18 0.000000e+00 0.000000e+00)
(-2.641161e-18 0.000000e+00 0.000000e+00)
(-1.030408e-18 0.000000e+00 0.000000e+00)
(5.803448e-19 0.000000e+00 0.000000e+00)
(-3.057946e-18 0.000000e+00 0.000000e+00)
(8.902789e-19 0.000000e+00 0.000000e+00)
(-4.336067e-18 0.000000e+00 0.000000e+00)
(5.271000e-18 0.000000e+00 0.000000e+00)
(4.813420e-18 0.000000e+00 0.000000e+00)
(-6.075971e-18 0.000000e+00 0.000000e+00)
(-3.063926e-18 0.000000e+00 0.000000e+00)
(1.301327e-18 0.000000e+00 0.000000e+00)
(-5.419887e-18 0.000000e+00 0.000000e+00)
(1.275716e-18 0.000000e+00 0.000000e+00)
(-3.377165e-18 0.000000e+00 0.000000e+00)
(5.074447e-18 0.000000e+00 0.000000e+00)
(2.115652e-18 0.000000e+00 0.000000e+00)
(-1.631043e-19 0.000000e+00 0.000000e+00)
(-1.808521e-18 0.000000e+00 0.000000e+00)
(-2.868178e-18 0.000000e+00 0.000000e+00)
(-3.383541e-18 0.000000e+00 0.000000e+00)
(-3.393774e-18 0.000000e+00 0.000000e+00)
(-2.936823e-18 0.000000e+00 0.000000e+00)
(-2.049092e-18 0.000000e+00 0.000000e+00)
(-7.652281e-19 0.000000e+00 0.000000e+00)
(8.830023e-19 0.000000e+00 0.000000e+00)
(2.866435e-18 0.000000e+00 0.000000e+00)
(5.157704e-18 0.000000e+00 0.000000e+00)
(-4.451432e-18 0.000000e+00 0.000000e+00)
(-1.511006e-18 0.000000e+00 0.000000e+00)
(1.670683e-18 0.000000e+00 0.000000e+00)
(5.071273e-18 0.000000e+00 0.000000e+00)
(-3.474280e-18 0.000000e+00 0.000000e+00)
(4.521145e-19 0.000000e+00 0.000000e+00)
(4.542807e-18 0.000000e+00 0.000000e+00)
(-3.360888e-18 0.000000e+00 0.000000e+00)
(1.178459e-18 0.000000e+00 0.000000e+00)
(5.834961e-18 0.000000e+00 0.000000e+00)
(-1.474089e-18 0.000000e+00 0.000000e+00)
(3.565418e-18 0.000000e+00 0.000000e+00)
(-3.463083e-18 0.000000e+00 0.000000e+00)
(1.922482e-18 0.000000e+00 0.000000e+00)
(-4.836349e-18 0.000000e+00 0.000000e+00)
(8.602412e-19 0.000000e+00 0.000000e+00)
(-5.640486e-18 0.000000e+00 0.000000e+00)
(3.370195e-19 0.000000e+00 0.000000e+00)
(-5.913343e-18 0.000000e+00 0.000000e+00)
(3.136758e-19 0.000000e+00 0.000000e+00)
(-5.697742e-18 0.000000e+00 0.000000e+00)
(7.519209e-19 0.000000e+00 0.000000e+00)
(-5.028529e-18 0.000000e+00 0.000000e+00)
(1.617163e-18 0.000000e+00 0.000000e+00)
(-3.941627e-18 0.000000e+00 0.000000e+00)
(2.875448e-18 0.000000e+00 0.000000e+00)
(-2.470344e-18 0.000000e+00 0.000000e+00)
(4.495358e-18 0.000000e+00 0.000000e+00)
(-6.450727e-19 0.000000e+00 0.000000e+00)
(-5.785504e-18 0.000000e+00 0.000000e+00)
(1.504359e-18 0.000000e+00 0.000000e+00)
(-3.439311e-18 0.000000e+00 0.000000e+00)
(3.950132e-18 0.000000e+00 0.000000e+00)
(-8.039654e-19 0.000000e+00 0.000000e+00)
(-5.558063e-18 0.000000e+00 0.000000e+00)
(2.094962e-18 0.000000e+00 0.000000e+00)
(-2.476796e-18 0.000000e+00 0.000000e+00)
(5.233422e-18 0.000000e+00 0.000000e+00)
(8.371401e-19 0.000000e+00 0.000000e+00)
(-3.559142e-18 0.000000e+00 0.000000e+00)
(4.361306e-18 0.000000e+00 0.000000e+00)
(1.336366e-19 0.000000e+00 0.000000e+00)
(-4.094033e-18 0.000000e+00 0.000000e+00)
(4.008900e-18 0.000000e+00 0.000000e+00)
(-5.696274e-20 0.000000e+00 0.000000e+00)
(-4.122826e-18 0.000000e+00 0.000000e+00)
(4.137123e-18 0.000000e+00 0.000000e+00)
(2.274640e-19 0.000000e+00 0.000000e+00)
(-3.682195e-18 0.000000e+00 0.000000e+00)
(4.710946e-18 0.000000e+00 0.000000e+00)
(9.512726e-19 0.000000e+00 0.000000e+00)
(-2.808401e-18 0.000000e+00 0.000000e+00)
(5.695405e-18 0.000000e+00 0.000000e+00)
(2.079573e-18 0.000000e+00 0.000000e+00)
(-1.536258e-18 0.000000e+00 0.000000e+00)
(-5.152090e-18 0.000000e+00 0.000000e+00)
(3.580130e-18 0.000000e+00 0.000000e+00)
(1.031954e-19 0.000000e+00 0.000000e+00)
(-3.373739e-18 0.000000e+00 0.000000e+00)
(5.423790e-18 0.000000e+00 0.000000e+00)
(2.080703e-18 0.000000e+00 0.000000e+00)
(-1.262383e-18 0.000000e+00 0.000000e+00)
(-4.605469e-18 0.000000e+00 0.000000e+00)
(4.367396e-18 0.000000e+00 0.000000e+00)
(1.151583e-18 0.000000e+00 0.000000e+00)
(-2.064231e-18 0.000000e+00 0.000000e+00)
(-5.280044e-18 0.000000e+00 0.000000e+00)
(3.841554e-18 0.000000e+00 0.000000e+00)
(7.490133e-19 0.000000e+00 0.000000e+00)
(-2.343527e-18 0.000000e+00 0.000000e+00)
(-5.436068e-18 0.000000e+00 0.000000e+00)
(3.810367e-18 0.000000e+00 0.000000e+00)
(8.367701e-19 0.000000e+00 0.000000e+00)
(-2.136826e-18 0.000000e+00 0.000000e+00)
(-5.110423e-18 0.000000e+00 0.000000e+00)
(4.237972e-18 0.000000e+00 0.000000e+00)
(1.378920e-18 0.000000e+00 0.000000e+00)
(-1.480131e-18 0.000000e+00 0.000000e+00)
(-4.339182e-18 0.000000e+00 0.000000e+00)
(5.089124e-18 0.000000e+00 0.000000e+00)
(2.338841e-18 0.000000e+00 0.000000e+00)
(-4.114423e-19 0.000000e+00 0.000000e+00)
(-3.161725e-18 0.000000e+00 0.000000e+00)
(-5.912008e-18 0.000000e+00 0.000000e+00)
(3.681871e-18 0.000000e+00 0.000000e+00)
(1.037419e-18 0.000000e+00 0.000000e+00)
(-1.607034e-18 0.000000e+00 0.000000e+00)
(-4.251486e-18 0.000000e+00 0.000000e+00)
(5.380173e-18 0.000000e+00 0.000000e+00)
(2.837197e-18 0.000000e+00 0.000000e+00)
(2.942222e-19 0.000000e+00 0.000000e+00)
(-2.248753e-18 0.000000e+00 0.000000e+00)
(-4.791728e-18 0.000000e+00 0.000000e+00)
(4.958577e-18 0.000000e+00 0.000000e+00)
(2.513881e-18 0.000000e+00 0.000000e+00)
(6.918490e-20 0.000000e+00 0.000000e+00)
(-2.375511e-18 0.000000e+00 0.000000e+00)
(-4.820207e-18 0.000000e+00 0.000000e+00)
(5.024967e-18 0.000000e+00 0.000000e+00)
(2.673225e-18 0.000000e+00 0.000000e+00)
(3.214831e-19 0.000000e+00 0.000000e+00)
(-2.030259e-18 0.000000e+00 0.000000e+00)
(-4.382000e-18 0.000000e+00 0.000000e+00)
(5.536037e-18 0.000000e+00 0.000000e+00)
(3.274122e-18 0.000000e+00 0.000000e+00)
(1.012207e-18 0.000000e+00 0.000000e+00)
(-1.249708e-18 0.000000e+00 0.000000e+00)
(-3.511623e-18 0.000000e+00 0.000000e+00)
(-5.773538e-18 0.000000e+00 0.000000e+00)
(4.284956e-18 0.000000e+00 0.000000e+00)
(2.110514e-18 0.000000e+00 0.000000e+00)
(-6.392861e-20 0.000000e+00 0.000000e+00)
(-2.238371e-18 0.000000e+00 0.000000e+00)
(-4.412814e-18 0.000000e+00 0.000000e+00)
(5.676816e-18 0.000000e+00 0.000000e+00)
(3.584906e-18 0.000000e+00 0.000000e+00)
(1.492996e-18 0.000000e+00 0.000000e+00)
(-5.989139e-19 0.000000e+00 0.000000e+00)
(-2.690824e-18 0.000000e+00 0.000000e+00)
(-4.782734e-18 0.000000e+00 0.000000e+00)
(5.400863e-18 0.000000e+00 0.000000e+00)
(3.389818e-18 0.000000e+00 0.000000e+00)
(1.378772e-18 0.000000e+00 0.000000e+00)
(-6.322726e-19 0.000000e+00 0.000000e+00)
(-2.643318e-18 0.000000e+00 0.000000e+00)
(-4.654363e-18 0.000000e+00 0.000000e+00)
(5.601775e-18 0.000000e+00 0.000000e+00)
(3.667594e-18 0.000000e+00 0.000000e+00)
(1.733413e-18 0.000000e+00 0.000000e+00)
(-2.007680e-19 0.000000e+00 0.000000e+00)
(-2.134949e-18 0.000000e+00 0.000000e+00)
(-4.069130e-18 0.000000e+00 0.000000e+00)
(-6.003311e-18 0.000000e+00 0.000000e+00)
(4.378678e-18 0.000000e+00 0.000000e+00)
(2.518814e-18 0.000000e+00 0.000000e+00)
(6.589498e-19 0.000000e+00 0.000000e+00)
(-1.200914e-18 0.000000e+00 0.000000e+00)
(-3.060778e-18 0.000000e+00 0.000000e+00)
(-4.920642e-18 0.000000e+00 0.000000e+00)
(5.491291e-18 0.000000e+00 0.000000e+00)
(3.703121e-18 0.000000e+00 0.000000e+00)
(1.914951e-18 0.000000e+00 0.000000e+00)
(1.267812e-19 0.000000e+00 0.000000e+00)
(-1.661389e-18 0.000000e+00 0.000000e+00)
(-3.449558e-18 0.000000e+00 0.000000e+00)
(-5.237728e-18 0.000000e+00 0.000000e+00)
(5.254872e-18 0.000000e+00 0.000000e+00)
(3.534670e-18 0.000000e+00 0.000000e+00)
(1.814469e-18 0.000000e+00 0.000000e+00)
(9.426705e-20 0.000000e+00 0.000000e+00)
(-1.625935e-18 0.000000e+00 0.000000e+00)
(-3.346136e-18 0.000000e+00 0.000000e+00)
(-5.066338e-18 0.000000e+00 0.000000e+00)
(5.485538e-18 0.000000e+00 0.000000e+00)
(3.831773e-18 0.000000e+00 0.000000e+00)
(2.178008e-18 0.000000e+00 0.000000e+00)
(5.242435e-19 0.000000e+00 0.000000e+00)
(-1.129521e-18 0.000000e+00 0.000000e+00)
(-2.783286e-18 0.000000e+00 0.000000e+00)
(-4.437051e-18 0.000000e+00 0.000000e+00)
(-6.090816e-18 0.000000e+00 0.000000e+00)
(4.563508e-18 0.000000e+00 0.000000e+00)
(2.972604e-18 0.000000e+00 0.000000e+00)
(1.381700e-18 0.000000e+00 0.000000e+00)
(-2.092039e-19 0.000000e+00 0.000000e+00)
(-1.800108e-18 0.000000e+00 0.000000e+00)
(-3.391012e-18 0.000000e+00 0.000000e+00)
(-4.981916e-18 0.000000e+00 0.000000e+00)
(5.691056e-18 0.000000e+00 0.000000e+00)
(4.161778e-18 0.000000e+00 0.000000e+00)
(2.632500e-18 0.000000e+00 0.000000e+00)
(1.103221e-18 0.000000e+00 0.000000e+00)
(-4.260569e-19 0.000000e+00 0.000000e+00)
(-1.955335e-18 0.000000e+00 0.000000e+00)
(-3.484613e-18 0.000000e+00 0.000000e+00)
(-5.013892e-18 0.000000e+00 0.000000e+00)
(5.719271e-18 0.000000e+00 0.000000e+00)
(4.248189e-18 0.000000e+00 0.000000e+00)
(2.777108e-18 0.000000e+00 0.000000e+00)
(1.306026e-18 0.000000e+00 0.000000e+00)
(-1.650554e-19 0.000000e+00 0.000000e+00)
(-1.636137e-18 0.000000e+00 0.000000e+00)
(-3.107219e-18 0.000000e+00 0.000000e+00)
(-4.578300e-18 0.000000e+00 0.000000e+00)
(-6.049382e-18 0.000000e+00 0.000000e+00)
(4.779614e-18 0.000000e+00 0.000000e+00)
(3.364983e-18 0.000000e+00 0.000000e+00)
(1.950352e-18 0.000000e+00 0.000000e+00)
(5.357207e-19 0.000000e+00 0.000000e+00)
(-8.789102e-19 0.000000e+00 0.000000e+00)
(-2.293541e-18 0.000000e+00 0.000000e+00)
(-3.708172e-18 0.000000e+00 0.000000e+00)
(-5.122803e-18 0.000000e+00 0.000000e+00)
(5.725015e-18 0.000000e+00 0.000000e+00)
(4.364993e-18 0.000000e+00 0.000000e+00)
(3.004970e-18 0.000000e+00 0.000000e+00)
(1.644947e-18 0.000000e+00 0.000000e+00)
(2.849247e-19 0.000000e+00 0.000000e+00)
(-1.075098e-18 0.000000e+00 0.000000e+00)
(-2.435121e-18 0.000000e+00 0.000000e+00)
(-3.795143e-18 0.000000e+00 0.000000e+00)
(-5.155166e-18 0.000000e+00 0.000000e+00)
(5.746194e-18 0.000000e+00 0.000000e+00)
(4.437952e-18 0.000000e+00 0.000000e+00)
(3.129709e-18 0.000000e+00 0.000000e+00)
(1.821466e-18 0.000000e+00 0.000000e+00)
(5.132236e-19 0.000000e+00 0.000000e+00)
(-7.950191e-19 0.000000e+00 0.000000e+00)
(-2.103262e-18 0.000000e+00 0.000000e+00)
(-3.411505e-18 0.000000e+00 0.000000e+00)
(-4.719747e-18 0.000000e+00 0.000000e+00)
(-6.027990e-18 0.000000e+00 0.000000e+00)
(4.956829e-18 0.000000e+00 0.000000e+00)
(3.698846e-18 0.000000e+00 0.000000e+00)
(2.440864e-18 0.000000e+00 0.000000e+00)
(1.182881e-18 0.000000e+00 0.000000e+00)
(-7.510156e-20 0.000000e+00 0.000000e+00)
(-1.333084e-18 0.000000e+00 0.000000e+00)
(-2.591067e-18 0.000000e+00 0.000000e+00)
(-3.849049e-18 0.000000e+00 0.000000e+00)
(-5.107032e-18 0.000000e+00 0.000000e+00)
(5.890745e-18 0.000000e+00 0.000000e+00)
(4.681147e-18 0.000000e+00 0.000000e+00)
(3.471548e-18 0.000000e+00 0.000000e+00)
(2.261949e-18 0.000000e+00 0.000000e+00)
(1.052351e-18 0.000000e+00 0.000000e+00)
(-1.572478e-19 0.000000e+00 0.000000e+00)
(-1.366846e-18 0.000000e+00 0.000000e+00)
(-2.576445e-18 0.000000e+00 0.000000e+00)
(-3.786044e-18 0.000000e+00 0.000000e+00)
(-4.995642e-18 0.000000e+00 0.000000e+00)
(6.044356e-18 0.000000e+00 0.000000e+00)
(4.881018e-18 0.000000e+00 0.000000e+00)
(3.717680e-18 0.000000e+00 0.000000e+00)
(2.554341e-18 0.000000e+00 0.000000e+00)
(1.391003e-18 0.000000e+00 0.000000e+00)
(2.276653e-19 0.000000e+00 0.000000e+00)
(-9.356728e-19 0.000000e+00 0.000000e+00)
(-2.099011e-18 0.000000e+00 0.000000e+00)
(-3.262349e-18 0.000000e+00 0.000000e+00)
(-4.425687e-18 0.000000e+00 0.000000e+00)
(-5.589025e-18 0.000000e+00 0.000000e+00)
(5.518246e-18 0.000000e+00 0.000000e+00)
(4.399561e-18 0.000000e+00 0.000000e+00)
(3.280877e-18 0.000000e+00 0.000000e+00)
(2.162193e-18 0.000000e+00 0.000000e+00)
(1.043509e-18 0.000000e+00 0.000000e+00)
(-7.517558e-20 0.000000e+00 0.000000e+00)
(-1.193860e-18 0.000000e+00 0.000000e+00)
(-2.312544e-18 0.000000e+00 0.000000e+00)
(-3.431228e-18 0.000000e+00 0.000000e+00)
(-4.549912e-18 0.000000e+00 0.000000e+00)
(-5.668597e-18 0.000000e+00 0.000000e+00)
(5.484591e-18 0.000000e+00 0.000000e+00)
(4.408717e-18 0.000000e+00 0.000000e+00)
(3.332843e-18 0.000000e+00 0.000000e+00)
(2.256969e-18 0.000000e+00 0.000000e+00)
(1.181095e-18 0.000000e+00 0.000000e+00)
(1.052205e-19 0.000000e+00 0.000000e+00)
(-9.706536e-19 0.000000e+00 0.000000e+00)
(-2.046528e-18 0.000000e+00 0.000000e+00)
(-3.122402e-18 0.000000e+00 0.000000e+00)
(-4.198276e-18 0.000000e+00 0.000000e+00)
(-5.274150e-18 0.000000e+00 0.000000e+00)
(5.905160e-18 0.000000e+00 0.000000e+00)
(4.870674e-18 0.000000e+00 0.000000e+00)
(3.836187e-18 0.000000e+00 0.000000e+00)
(2.801700e-18 0.000000e+00 0.000000e+00)
(1.767214e-18 0.000000e+00 0.000000e+00)
(7.327269e-19 0.000000e+00 0.000000e+00)
(-3.017598e-19 0.000000e+00 0.000000e+00)
(-1.336246e-18 0.000000e+00 0.000000e+00)
(-2.370733e-18 0.000000e+00 0.000000e+00)
(-3.405220e-18 0.000000e+00 0.000000e+00)
(-4.439706e-18 0.000000e+00 0.000000e+00)
(-5.474193e-18 0.000000e+00 0.000000e+00)
(5.752523e-18 0.000000e+00 0.000000e+00)
(4.757604e-18 0.000000e+00 0.000000e+00)
(3.762685e-18 0.000000e+00 0.000000e+00)
(2.767766e-18 0.000000e+00 0.000000e+00)
(1.772846e-18 0.000000e+00 0.000000e+00)
(7.779273e-19 0.000000e+00 0.000000e+00)
(-2.169919e-19 0.000000e+00 0.000000e+00)
(-1.211911e-18 0.000000e+00 0.000000e+00)
(-2.206830e-18 0.000000e+00 0.000000e+00)
(-3.201749e-18 0.000000e+00 0.000000e+00)
(-4.196669e-18 0.000000e+00 0.000000e+00)
(-5.191588e-18 0.000000e+00 0.000000e+00)
(6.062379e-18 0.000000e+00 0.000000e+00)
(5.105594e-18 0.000000e+00 0.000000e+00)
(4.148809e-18 0.000000e+00 0.000000e+00)
(3.192025e-18 0.000000e+00 0.000000e+00)
(2.235240e-18 0.000000e+00 0.000000e+00)
(1.278456e-18 0.000000e+00 0.000000e+00)
(3.216710e-19 0.000000e+00 0.000000e+00)
(-6.351136e-19 0.000000e+00 0.000000e+00)
(-1.591898e-18 0.000000e+00 0.000000e+00)
(-2.548683e-18 0.000000e+00 0.000000e+00)
(-3.505467e-18 0.000000e+00 0.000000e+00)
(-4.462252e-18 0.000000e+00 0.000000e+00)
(-5.419037e-18 0.000000e+00 0.000000e+00)
(5.880365e-18 0.000000e+00 0.000000e+00)
(4.960423e-18 0.000000e+00 0.000000e+00)
(4.040480e-18 0.000000e+00 0.000000e+00)
(3.120537e-18 0.000000e+00 0.000000e+00)
(2.200595e-18 0.000000e+00 0.000000e+00)
(1.280652e-18 0.000000e+00 0.000000e+00)
(3.607095e-19 0.000000e+00 0.000000e+00)
(-5.592331e-19 0.000000e+00 0.000000e+00)
(-1.479176e-18 0.000000e+00 0.000000e+00)
(-2.399118e-18 0.000000e+00 0.000000e+00)
(-3.319061e-18 0.000000e+00 0.000000e+00)
(-4.239004e-18 0.000000e+00 0.000000e+00)
(-5.158946e-18 0.000000e+00 0.000000e+00)
(-6.078889e-18 0.000000e+00 0.000000e+00)
(5.281033e-18 0.000000e+00 0.000000e+00)
(4.396186e-18 0.000000e+00 0.000000e+00)
(3.511339e-18 0.000000e+00 0.000000e+00)
(2.626491e-18 0.000000e+00 0.000000e+00)
(1.741644e-18 0.000000e+00 0.000000e+00)
(8.567974e-19 0.000000e+00 0.000000e+00)
(-2.804965e-20 0.000000e+00 0.000000e+00)
(-9.128967e-19 0.000000e+00 0.000000e+00)
(-1.797744e-18 0.000000e+00 0.000000e+00)
(-2.682591e-18 0.000000e+00 0.000000e+00)
(-3.567438e-18 0.000000e+00 0.000000e+00)
(-4.452285e-18 0.000000e+00 0.000000e+00)
(-5.337132e-18 0.000000e+00 0.000000e+00)
(6.028284e-18 0.000000e+00 0.000000e+00)
(5.177517e-18 0.000000e+00 0.000000e+00)
(4.326749e-18 0.000000e+00 0.000000e+00)
(3.475981e-18 0.000000e+00 0.000000e+00)
(2.625214e-18 0.000000e+00 0.000000e+00)
(1.774446e-18 0.000000e+00 0.000000e+00)
(9.236784e-19 0.000000e+00 0.000000e+00)
(7.291079e-20 0.000000e+00 0.000000e+00)
(-7.778569e-19 0.000000e+00 0.000000e+00)
(-1.628625e-18 0.000000e+00 0.000000e+00)
(-2.479392e-18 0.000000e+00 0.000000e+00)
(-3.330160e-18 0.000000e+00 0.000000e+00)
(-4.180927e-18 0.000000e+00 0.000000e+00)
(-5.031695e-18 0.000000e+00 0.000000e+00)
(-5.882463e-18 0.000000e+00 0.000000e+00)
(5.536543e-18 0.000000e+00 0.000000e+00)
(4.718290e-18 0.000000e+00 0.000000e+00)
(3.900038e-18 0.000000e+00 0.000000e+00)
(3.081785e-18 0.000000e+00 0.000000e+00)
(2.263532e-18 0.000000e+00 0.000000e+00)
(1.445280e-18 0.000000e+00 0.000000e+00)
(6.270270e-19 0.000000e+00 0.000000e+00)
(-1.912256e-19 0.000000e+00 0.000000e+00)
(-1.009478e-18 0.000000e+00 0.000000e+00)
(-1.827731e-18 0.000000e+00 0.000000e+00)
(-2.645984e-18 0.000000e+00 0.000000e+00)
(-3.464236e-18 0.000000e+00 0.000000e+00)
(-4.282489e-18 0.000000e+00 0.000000e+00)
(-5.100741e-18 0.000000e+00 0.000000e+00)
(-5.918994e-18 0.000000e+00 0.000000e+00)
(5.532819e-18 0.000000e+00 0.000000e+00)
(4.746025e-18 0.000000e+00 0.000000e+00)
(3.959230e-18 0.000000e+00 0.000000e+00)
(3.172435e-18 0.000000e+00 0.000000e+00)
(2.385640e-18 0.000000e+00 0.000000e+00)
(1.598846e-18 0.000000e+00 0.000000e+00)
(8.120508e-19 0.000000e+00 0.000000e+00)
(2.525611e-20 0.000000e+00 0.000000e+00)
(-7.615386e-19 0.000000e+00 0.000000e+00)
(-1.548333e-18 0.000000e+00 0.000000e+00)
(-2.335128e-18 0.000000e+00 0.000000e+00)
(-3.121923e-18 0.000000e+00 0.000000e+00)
(-3.908718e-18 0.000000e+00 0.000000e+00)
(-4.695512e-18 0.000000e+00 0.000000e+00)
(-5.482307e-18 0.000000e+00 0.000000e+00)
(5.982950e-18 0.000000e+00 0.000000e+00)
(5.226313e-18 0.000000e+00 0.000000e+00)
(4.469677e-18 0.000000e+00 0.000000e+00)
(3.713041e-18 0.000000e+00 0.000000e+00)
(2.956405e-18 0.000000e+00 0.000000e+00)
(2.199769e-18 0.000000e+00 0.000000e+00)
(1.443132e-18 0.000000e+00 0.000000e+00)
(6.864960e-19 0.000000e+00 0.000000e+00)
(-7.014018e-20 0.000000e+00 0.000000e+00)
(-8.267764e-19 0.000000e+00 0.000000e+00)
(-1.583413e-18 0.000000e+00 0.000000e+00)
(-2.340049e-18 0.000000e+00 0.000000e+00)
(-3.096685e-18 0.000000e+00 0.000000e+00)
(-3.853321e-18 0.000000e+00 0.000000e+00)
(-4.609958e-18 0.000000e+00 0.000000e+00)
(-5.366594e-18 0.000000e+00 0.000000e+00)
(6.123230e-18 0.000000e+00 0.000000e+00))
;

boundaryField
{
    default
    {
        type            calculated;
        value           uniform (0 0 0);
    }
}


// ************************************************************************* //
