/*--------------------------------*- C++ -*----------------------------------*\
| =========                 |                                                 |
| \\      /  F ield         | OpenFOAM: The Open Source CFD Toolbox           |
|  \\    /   O peration     | Version:  v2012                                 |
|   \\  /    A nd           | Website:  www.openfoam.com                      |
|    \\/     M anipulation  |                                                 |
\*---------------------------------------------------------------------------*/
FoamFile
{
    version     2.0;
    format      ascii;
    class       volScalarField;
    location    "1";
    object      epsilon;
}
// * * * * * * * * * * * * * * * * * * * * * * * * * * * * * * * * * * * * * //

dimensions      [0 2 -3 0 0 0 0];


internalField   nonuniform List<scalar> 
76776
(
0.0534122
0.0183401
0.0105912
0.00775616
0.0063688
0.00556201
0.00504475
0.00469565
0.00445647
0.00429522
0.00419399
0.00414282
0.00413398
0.00416275
0.00422985
0.00433852
0.00449832
0.00471674
0.00500524
0.00537964
0.00586173
0.00648119
0.00727828
0.00830784
0.00964353
0.0113826
0.0136505
0.0166022
0.0204162
0.0252752
0.0313381
0.0387104
0.0472702
0.0568831
0.0686209
0.0507586
0.0172765
0.00992403
0.00725485
0.0059719
0.00524437
0.00479526
0.00450999
0.0043341
0.0042376
0.00420278
0.00421941
0.00428395
0.00440054
0.00457843
0.00482736
0.00515788
0.00558877
0.00614597
0.00686496
0.00779397
0.00899818
0.0105647
0.0126074
0.0152708
0.0187283
0.0231708
0.0287816
0.0357192
0.0440789
0.0538862
0.0649816
0.0770006
0.0886092
0.102489
0.0505417
0.016885
0.00957693
0.00697473
0.0057515
0.00508269
0.00469515
0.00447333
0.004362
0.0043333
0.0043733
0.00448507
0.0046736
0.00494722
0.00531813
0.00580799
0.00644655
0.00727508
0.00834996
0.00974701
0.0115663
0.0139363
0.017016
0.0209907
0.0260496
0.0323691
0.0400855
0.0492784
0.0599006
0.0718659
0.0846546
0.0980822
0.110788
0.118001
0.123499
0.052479
0.017137
0.00955408
0.00692871
0.00572571
0.00509595
0.00475957
0.00460214
0.00456922
0.00464398
0.00482302
0.00510645
0.00550872
0.0060529
0.00677238
0.00771443
0.0089437
0.0105465
0.0126353
0.015352
0.0188687
0.0233735
0.0290565
0.0360857
0.0445917
0.0546299
0.0661539
0.0789905
0.0925974
0.10688
0.119864
0.12789
0.130076
0.128819
0.126944
0.0561208
0.0178821
0.00981355
0.0070977
0.00590238
0.00531848
0.00505451
0.00499804
0.00510575
0.0053608
0.0057688
0.00634955
0.00713808
0.00818629
0.0095661
0.0113732
0.0137311
0.0167938
0.0207386
0.0257577
0.0320395
0.0397543
0.0490258
0.0599067
0.0723169
0.0860745
0.100588
0.116048
0.129087
0.136867
0.139023
0.138559
0.132507
0.124561
0.113806
0.0610918
0.0190088
0.0103241
0.00750374
0.00633598
0.00584038
0.00570919
0.00583375
0.00618166
0.00675405
0.00757903
0.00870831
0.0102177
0.0122098
0.0148174
0.0182012
0.0225447
0.0280436
0.0348923
0.0432587
0.0532647
0.0649561
0.0782858
0.0930174
0.108565
0.124956
0.138524
0.146192
0.148103
0.147638
0.140939
0.131797
0.115646
0.0938574
0.0768397
0.0670909
0.0204993
0.0111284
0.00822287
0.00713805
0.00681159
0.00692742
0.00738734
0.00817872
0.00933763
0.0109349
0.0130751
0.0158959
0.0195642
0.0242703
0.0302195
0.0376136
0.0466264
0.057375
0.0698947
0.0840664
0.099667
0.116355
0.134122
0.148241
0.156071
0.157969
0.157351
0.149131
0.139742
0.121243
0.0978452
0.0753158
0.0572722
0.045491
0.0742403
0.0222925
0.0122795
0.0094094
0.0085389
0.00854639
0.00912521
0.0102055
0.0118166
0.014048
0.0170341
0.0209452
0.0259794
0.0323525
0.0402768
0.0499359
0.0614623
0.0748952
0.0901527
0.10688
0.12429
0.141669
0.157787
0.166209
0.168307
0.167625
0.158559
0.14755
0.1268
0.101671
0.0765996
0.0584086
0.0461554
0.0372202
0.0307581
0.0831563
0.0248249
0.014239
0.0115327
0.0110719
0.0116906
0.0131083
0.0153032
0.018367
0.0224565
0.0277713
0.0345342
0.0429683
0.0532692
0.0655723
0.0799214
0.0962011
0.114135
0.133263
0.153308
0.169544
0.179354
0.181281
0.179704
0.16893
0.156515
0.13375
0.105385
0.0778264
0.0572445
0.0443268
0.0367079
0.0311687
0.0262995
0.0228359
0.0953098
0.0290337
0.0177964
0.0153951
0.0156497
0.0173251
0.0201943
0.0242848
0.0297542
0.0368156
0.0456983
0.0566092
0.0696974
0.0850064
0.102421
0.121556
0.141633
0.161819
0.180248
0.189969
0.191946
0.189674
0.183533
0.164893
0.140743
0.110649
0.0814549
0.0607963
0.0488078
0.0412032
0.035474
0.0305702
0.0265085
0.0231236
0.0196867
0.111427
0.035775
0.0237811
0.0219664
0.0234244
0.0268838
0.0321177
0.0392046
0.0483336
0.0597068
0.0734789
0.0897056
0.108269
0.128812
0.150571
0.172906
0.192362
0.20413
0.207043
0.205006
0.192674
0.177224
0.148879
0.116286
0.0849209
0.0613956
0.0461353
0.036384
0.0298236
0.0252487
0.0219495
0.0195367
0.0176795
0.0161783
0.0150446
0.131142
0.0455179
0.0328951
0.0321992
0.0356346
0.0419206
0.0507566
0.0622107
0.0763968
0.093356
0.112958
0.134799
0.158119
0.181827
0.20339
0.216
0.218994
0.216636
0.209372
0.188244
0.158027
0.122857
0.0896485
0.0650688
0.0497096
0.0398034
0.0335265
0.0290132
0.0253558
0.0226497
0.0205459
0.0187521
0.0172025
0.015819
0.014592
0.150452
0.0569338
0.0450005
0.0465755
0.0533243
0.0638954
0.0778747
0.0951711
0.115615
0.138773
0.163791
0.18912
0.213612
0.228813
0.233438
0.23189
0.22028
0.202485
0.169251
0.131286
0.0950949
0.0680395
0.0509882
0.0403444
0.0335352
0.0288864
0.0254838
0.0228963
0.0208809
0.0192182
0.0177826
0.0165087
0.0153473
0.0142682
0.0132595
0.167441
0.0699496
0.0606746
0.0660878
0.0779646
0.0945188
0.115125
0.139203
0.165889
0.193861
0.221545
0.24077
0.247597
0.246028
0.236654
0.218151
0.183438
0.142427
0.103618
0.0745656
0.0566082
0.0451127
0.0374533
0.0321115
0.028219
0.0253069
0.02303
0.0211603
0.0195547
0.0181301
0.016836
0.0156388
0.014517
0.013457
0.0124573
0.181908
0.0856569
0.08142
0.0925735
0.111402
0.135369
0.163052
0.192676
0.222078
0.247931
0.260177
0.261735
0.255184
0.235706
0.200348
0.156956
0.11503
0.0823364
0.0613821
0.0481909
0.0396862
0.0339651
0.0299213
0.0269065
0.0245359
0.0225765
0.0208932
0.0194053
0.0180611
0.0168256
0.0156742
0.0145886
0.0135557
0.0125679
0.0116244
0.192554
0.105535
0.109043
0.12823
0.155471
0.186971
0.219735
0.250225
0.272714
0.278827
0.274919
0.257114
0.223508
0.1779
0.132101
0.0950012
0.0701072
0.0546253
0.044614
0.0379067
0.0331893
0.0296696
0.0269054
0.0246457
0.022739
0.0210875
0.0196234
0.0182975
0.0170743
0.0159289
0.0148432
0.013805
0.0128075
0.0118478
0.0109268
0.197296
0.130877
0.145293
0.174901
0.210034
0.245742
0.276569
0.294677
0.294415
0.283082
0.253166
0.20672
0.156447
0.11315
0.0822535
0.0626579
0.0503588
0.0422592
0.0366221
0.0324657
0.0292552
0.026688
0.0245728
0.0227787
0.0212134
0.0198115
0.018527
0.017329
0.0161965
0.0151155
0.0140768
0.0130751
0.0121082
0.0111755
0.0102789
0.202931
0.166772
0.194229
0.232809
0.271454
0.302476
0.31617
0.309419
0.290157
0.246005
0.191951
0.141059
0.101927
0.0759688
0.0595803
0.0489156
0.0415991
0.0363283
0.0323762
0.0293139
0.0268639
0.0248365
0.0231018
0.0215717
0.0201868
0.0189073
0.0177067
0.0165675
0.0154773
0.0144281
0.0134148
0.012435
0.0114881
0.0105748
0.009697
0.275483
0.229897
0.260668
0.299197
0.329403
0.340185
0.328436
0.296179
0.242633
0.184289
0.133907
0.0973798
0.0735673
0.0583105
0.0482071
0.0412148
0.0361828
0.0324312
0.0295259
0.0271845
0.0252237
0.0235249
0.022011
0.0206308
0.0193495
0.0181433
0.016996
0.0158961
0.0148355
0.0138094
0.0128152
0.0118525
0.0109222
0.0100256
0.00916526
0.374792
0.310775
0.335195
0.362431
0.371859
0.353643
0.311369
0.250239
0.187072
0.134702
0.0977755
0.0739237
0.0586605
0.048584
0.041666
0.036722
0.0330328
0.0301543
0.0278131
0.0258383
0.0241207
0.0225877
0.0211899
0.0198923
0.0186706
0.0175078
0.0163919
0.0153146
0.0142709
0.0132582
0.012276
0.0113253
0.0104076
0.00952509
0.00868047
0.508371
0.405595
0.412498
0.415715
0.391852
0.341611
0.272253
0.201143
0.142917
0.102435
0.0766702
0.0604841
0.0499659
0.0428217
0.0377416
0.0339522
0.0309951
0.0285933
0.026573
0.0248208
0.0232605
0.0218395
0.020521
0.0192794
0.0180966
0.0169606
0.0158628
0.0147981
0.0137637
0.012759
0.0117848
0.0108431
0.00993595
0.0090661
0.00823632
0.670291
0.509106
0.48544
0.455228
0.394072
0.313459
0.229518
0.160314
0.11258
0.0827581
0.0643867
0.0526587
0.0448237
0.0393276
0.0352733
0.0321407
0.0296177
0.0275099
0.0256914
0.0240786
0.0226145
0.0212593
0.0199855
0.0187735
0.0176101
0.0164861
0.0153957
0.0143357
0.0133049
0.0123041
0.0113351
0.0104002
0.0095022
0.00864402
0.00782842
0.114157
0.0401671
0.0241548
0.0179085
0.0146036
0.0125413
0.0111217
0.0100779
0.00927432
0.00863431
0.00811137
0.00767582
0.00730744
0.00699205
0.00671957
0.00648262
0.00627578
0.006095
0.00593728
0.00580037
0.00568263
0.00558289
0.00550035
0.0054345
0.00538507
0.00535201
0.00533584
0.00533588
0.00535288
0.00538725
0.00543942
0.0055099
0.00559915
0.00570765
0.0058358
0.10902
0.0393465
0.0240828
0.0180253
0.0147821
0.0127426
0.0113309
0.0102901
0.00948716
0.00884611
0.00832109
0.00788237
0.00751003
0.00719021
0.00691294
0.00667092
0.00645873
0.00627229
0.00610858
0.00596532
0.00584086
0.00573399
0.00564386
0.00556993
0.00551187
0.00546953
0.00544306
0.00543281
0.00543799
0.00545943
0.00549741
0.0055522
0.00562403
0.00571312
0.00581958
0.10278
0.0381573
0.0237906
0.0179893
0.0148437
0.0128486
0.0114592
0.0104299
0.00963334
0.00899647
0.00847395
0.00803641
0.00766406
0.00734319
0.00706394
0.00681913
0.00660345
0.00641295
0.00624468
0.00609641
0.0059665
0.00585374
0.00575728
0.00567656
0.00561121
0.00556104
0.00552599
0.00550656
0.00550216
0.00551283
0.00553904
0.00558092
0.00563855
0.00571195
0.00580104
0.0957421
0.03665
0.0232912
0.0177992
0.0147849
0.0128565
0.0115045
0.0104977
0.00971506
0.00908672
0.00856952
0.00813529
0.00776492
0.00744489
0.00716554
0.00691981
0.0067025
0.00650973
0.0063386
0.00618695
0.00605316
0.00593608
0.00583486
0.00574894
0.00567795
0.00562167
0.00558003
0.00555324
0.00554164
0.00554399
0.00556121
0.00559337
0.00564048
0.0057025
0.00577919
0.0879588
0.0348422
0.0226005
0.01747
0.0146165
0.0127739
0.0114729
0.0104981
0.00973611
0.00912135
0.00861304
0.00818449
0.00781752
0.0074993
0.00722062
0.00697471
0.00675655
0.00656239
0.00638941
0.00623549
0.00609909
0.00597904
0.00587454
0.00578502
0.00571012
0.00564962
0.00560343
0.00557156
0.00555479
0.00555171
0.00556286
0.00558854
0.00562872
0.00568336
0.00575239
0.0805917
0.033045
0.0218809
0.0171099
0.0144163
0.0126572
0.0114042
0.0104586
0.00971522
0.00911249
0.00861203
0.00818857
0.00782481
0.0075085
0.00723081
0.0069852
0.00676683
0.00657206
0.00639813
0.00624301
0.00610514
0.00598341
0.005877
0.00578537
0.00570816
0.00564517
0.00559631
0.00556156
0.00554173
0.0055357
0.0055436
0.00556595
0.00560278
0.00565413
0.00572007
0.0840434
0.0338584
0.0221803
0.0172388
0.0144708
0.0126739
0.0113999
0.0104421
0.00969137
0.00908428
0.00858127
0.00815639
0.00779187
0.0074752
0.00719734
0.00695169
0.00673331
0.00653852
0.00636455
0.00620931
0.00607125
0.00594925
0.0058425
0.00575044
0.00567272
0.00560913
0.0055596
0.00552415
0.00550367
0.00549702
0.0055043
0.00552624
0.00556297
0.00561466
0.0056816
0.0915887
0.0356057
0.0228296
0.0175301
0.0146039
0.0127241
0.0114021
0.0104151
0.00964608
0.00902744
0.00851707
0.00808747
0.00772002
0.00740164
0.00712294
0.00687704
0.00665885
0.00646455
0.00629128
0.0061369
0.0059998
0.00587881
0.00577311
0.00568212
0.00560552
0.00554309
0.00549481
0.00546079
0.00544198
0.00543691
0.00544624
0.00547061
0.00551027
0.00556556
0.00563703
0.098325
0.037058
0.0233119
0.0177105
0.0146546
0.012708
0.0113482
0.0103382
0.00955488
0.00892671
0.00840996
0.00797621
0.00760625
0.00728665
0.00700775
0.00676243
0.00654539
0.00635268
0.0061813
0.00602905
0.00589425
0.0057757
0.00567256
0.00558424
0.00551041
0.00545089
0.00540567
0.00537513
0.0053598
0.00535829
0.00537198
0.00540124
0.00544647
0.00550816
0.00558716
0.104264
0.0382128
0.023609
0.0177575
0.0146032
0.0126104
0.0112262
0.0102028
0.00941077
0.00877714
0.00825714
0.00782197
0.00745195
0.00713325
0.00685594
0.00661274
0.00639824
0.00620839
0.00604016
0.00589127
0.00576002
0.00564519
0.00554591
0.00546161
0.00539196
0.00533681
0.00529619
0.00527082
0.00526038
0.00526457
0.00528453
0.00532078
0.00537384
0.00544447
0.0055338
0.10934
0.0390642
0.0237224
0.0176757
0.0144538
0.0124339
0.0110385
0.0100092
0.00921467
0.00858067
0.008062
0.00762907
0.00726186
0.00694639
0.00667265
0.00643328
0.00622285
0.00603728
0.00587349
0.0057292
0.0056027
0.00549277
0.00539854
0.00531946
0.00525521
0.0052057
0.0051711
0.00515233
0.00514821
0.00515972
0.00518771
0.00523283
0.00529582
0.00537764
0.00547972
0.113434
0.0396076
0.0236568
0.0174723
0.0142134
0.0121854
0.0107893
0.00976282
0.00897269
0.00834416
0.00783111
0.00740382
0.00704222
0.00673233
0.00646416
0.00623036
0.00602552
0.00584557
0.00568748
0.00554895
0.00542832
0.00532436
0.00523625
0.00516347
0.00510575
0.00506305
0.00503593
0.00502441
0.00502823
0.00504859
0.00508624
0.00514205
0.00521695
0.00531217
0.00542944
0.115768
0.0395151
0.0233167
0.0171126
0.0138694
0.0118609
0.0104812
0.00946853
0.00869132
0.00807415
0.00757122
0.00715308
0.00679992
0.00649792
0.00623723
0.00601064
0.00581281
0.00563976
0.00548849
0.00535679
0.005243
0.00514599
0.00506495
0.00499942
0.0049492
0.00491439
0.00489584
0.00489267
0.00490595
0.00493661
0.00498559
0.00505397
0.00514297
0.0052541
0.00538945
0.117504
0.0393493
0.0228986
0.0166862
0.0134702
0.0114879
0.0101321
0.00914126
0.00838235
0.00778076
0.00729134
0.00688512
0.00654267
0.00625048
0.00599891
0.00578093
0.00559134
0.00542626
0.00528281
0.00515884
0.00505279
0.00496356
0.00489045
0.00483307
0.0047913
0.00476567
0.00475613
0.00476289
0.00478709
0.00482972
0.00489197
0.00497521
0.00508104
0.00521137
0.0053687
0.117388
0.038814
0.0223344
0.0161776
0.0130162
0.0110767
0.00975503
0.00879175
0.00805548
0.00747287
0.00699967
0.00660761
0.00627774
0.00599693
0.00575583
0.00554763
0.00536731
0.00521114
0.00507637
0.00496094
0.00486341
0.00478277
0.00471841
0.00467005
0.00463784
0.00462224
0.00462297
0.00464126
0.00467811
0.00473478
0.00481282
0.00491402
0.00504046
0.00519465
0.00537956
0.115878
0.037966
0.0216412
0.0155972
0.0125155
0.0106331
0.0093554
0.00842622
0.0077172
0.007157
0.00670268
0.00632687
0.00601129
0.00574327
0.00551384
0.00531646
0.00514634
0.00499994
0.00487464
0.00476854
0.00468031
0.00460908
0.00455436
0.00451602
0.00449464
0.00448997
0.00450291
0.00453461
0.00458641
0.00465996
0.0047573
0.00488086
0.00503356
0.00521897
0.00543899
0.11289
0.0368346
0.0208425
0.0149627
0.0119816
0.0101687
0.00894227
0.00805227
0.00737426
0.00683934
0.00640616
0.00604843
0.00574865
0.00549471
0.00527804
0.00509246
0.00493344
0.00479765
0.00468265
0.00458672
0.00450869
0.00444784
0.00440388
0.00437707
0.00436754
0.00437584
0.00440318
0.00445097
0.00452098
0.00461542
0.00473701
0.00488894
0.00507539
0.00529796
0.00556281
0.108575
0.0354576
0.0199523
0.0142867
0.0114246
0.00969154
0.0085226
0.00767609
0.00703227
0.00652506
0.00611496
0.00577692
0.0054943
0.00525562
0.00505281
0.00488003
0.00473305
0.00460883
0.00450508
0.00442036
0.00435368
0.00430454
0.00427297
0.00425922
0.00426374
0.00428774
0.0043327
0.00440055
0.00449374
0.00461531
0.00476938
0.00495782
0.00518476
0.00546007
0.00579379
0.102704
0.0336854
0.0189375
0.01356
0.0108507
0.00920887
0.00810236
0.00730239
0.00669526
0.00621793
0.0058327
0.00551587
0.00525174
0.00502954
0.00484172
0.00468285
0.00454905
0.00443755
0.0043464
0.00427434
0.00422066
0.00418518
0.00416814
0.00417
0.00419194
0.00423556
0.00430295
0.00439684
0.00452099
0.00467707
0.0048691
0.00510602
0.00539821
0.00575689
0.00619374
0.0962139
0.0317256
0.0178524
0.012795
0.010253
0.00871622
0.00768029
0.00693243
0.0063653
0.00592012
0.00556162
0.00526762
0.00502348
0.00481919
0.00464777
0.00450428
0.00438521
0.00428813
0.00421143
0.00415415
0.00411594
0.00409692
0.00409768
0.00411935
0.00416356
0.00423271
0.00433019
0.00445715
0.00461718
0.00481884
0.00507198
0.005388
0.00577976
0.0062641
0.00685937
0.0892999
0.0296558
0.0167315
0.0120147
0.00964969
0.00822285
0.00726152
0.00656866
0.00604425
0.00563341
0.00530356
0.00503416
0.00481172
0.00462707
0.00447386
0.00434768
0.00424547
0.00416522
0.00410571
0.00406643
0.00404743
0.00404937
0.00407349
0.00412195
0.00419545
0.00429667
0.00442841
0.00459906
0.0048177
0.00509506
0.00544373
0.00588063
0.00642707
0.00710995
0.00796039
0.0820681
0.0275063
0.015593
0.0112339
0.00905039
0.00773557
0.006851
0.00621473
0.00573453
0.00535971
0.00506022
0.00481724
0.00461847
0.00445561
0.00432302
0.00421686
0.00413461
0.00407475
0.00403657
0.00402009
0.00402595
0.00405573
0.00410941
0.00418872
0.00429801
0.00444363
0.00463409
0.00487904
0.00519039
0.00558442
0.00608242
0.006712
0.00751095
0.00852956
0.00982185
0.0748809
0.0253467
0.0144601
0.0104642
0.00846157
0.00725862
0.00645156
0.0058727
0.0054379
0.0051006
0.00483333
0.00461896
0.00444638
0.00430825
0.00419967
0.00411748
0.00405977
0.00402566
0.00401527
0.00402919
0.00406692
0.00412941
0.00422069
0.00434717
0.00451686
0.00473778
0.00502095
0.00538122
0.00583869
0.00641972
0.00716112
0.00811474
0.00935188
0.010967
0.0130557
0.0681876
0.0232826
0.0133716
0.00971872
0.0078908
0.00679661
0.00606592
0.00554479
0.00515643
0.00485835
0.00462558
0.0044427
0.00429985
0.00419065
0.00411109
0.0040588
0.0040327
0.00403294
0.00405778
0.00410759
0.00418658
0.00430072
0.00445763
0.00466433
0.00493125
0.00527217
0.00570557
0.0062563
0.00695797
0.00785822
0.00902341
0.010547
0.0125616
0.0152474
0.0187689
0.062248
0.0213888
0.012345
0.00900784
0.00734551
0.00635537
0.00569893
0.00523536
0.00489448
0.00463767
0.00444245
0.00429507
0.00418698
0.00411294
0.00406994
0.00405698
0.00407096
0.00411174
0.00418308
0.00429093
0.00444226
0.00464415
0.00490694
0.00524423
0.00567437
0.00622192
0.00691977
0.00781278
0.00896189
0.0104491
0.0123852
0.014923
0.0182776
0.0227617
0.0286572
0.0574896
0.0197827
0.0114262
0.00835626
0.00683983
0.00594458
0.00535874
0.00495228
0.00466029
0.00444776
0.00429456
0.00418867
0.00412303
0.00409379
0.00409688
0.00413023
0.00419659
0.00430195
0.00445315
0.00465742
0.00492541
0.00527148
0.00571518
0.00628251
0.0070086
0.00794108
0.00914409
0.0107021
0.0127232
0.0153417
0.0187162
0.0230251
0.028487
0.0354489
0.0445848
0.00692303
0.00730641
0.00772477
0.0081821
0.00868367
0.00923273
0.0098407
0.0104989
0.0112572
0.0120258
0.0131302
0.0136979
0.0161538
0.0186667
0.0235981
0.0315898
0.0482821
0.0852094
0.116211
0.122169
0.112726
0.0911296
0.00596152
0.00631073
0.00669349
0.00711352
0.00757533
0.00808242
0.00864255
0.0092543
0.00994127
0.0106636
0.0116006
0.0122906
0.0136853
0.0153573
0.0184358
0.0227363
0.0309752
0.049748
0.0876904
0.110048
0.114592
0.105719
0.00506495
0.00537654
0.00571981
0.0060983
0.00651603
0.00697675
0.00748593
0.00804633
0.00866884
0.00933703
0.0101452
0.0108921
0.0118882
0.0130212
0.0149508
0.0176159
0.0216456
0.0301555
0.0502977
0.0860614
0.10875
0.109092
0.00424406
0.00451604
0.00481724
0.00515111
0.00552133
0.00593178
0.00638681
0.00689076
0.00744988
0.00805859
0.00876139
0.0094908
0.0103413
0.0112236
0.012475
0.0142672
0.0166334
0.0204472
0.029108
0.0481007
0.0828392
0.0997809
0.00350653
0.00373847
0.00399674
0.00428445
0.0046052
0.00496273
0.00536109
0.00580472
0.00629865
0.0068429
0.00745597
0.00812292
0.00888575
0.00966615
0.0105753
0.0118261
0.0134696
0.0155543
0.0192154
0.0272478
0.0446239
0.0797275
0.00285629
0.00304962
0.00326564
0.00350765
0.00377867
0.00408258
0.00442309
0.00480461
0.00523149
0.00570693
0.00623843
0.00682571
0.00749876
0.00821232
0.00896624
0.00989706
0.0111138
0.0125736
0.0144551
0.0177541
0.0253
0.0481817
0.00229382
0.00245071
0.00262731
0.00282551
0.00304892
0.00330039
0.00358401
0.00390359
0.00426362
0.00466782
0.00512121
0.00562525
0.00620252
0.00683813
0.00750376
0.00825682
0.00919135
0.010318
0.0116507
0.0131635
0.0164857
0.0281166
0.00181444
0.00193938
0.00207975
0.00223858
0.00241768
0.00262021
0.00284998
0.00311074
0.00340578
0.0037402
0.00411721
0.00453996
0.00502171
0.00556622
0.00614989
0.0067899
0.00753945
0.00842512
0.00950292
0.0105426
0.0121139
0.0175725
0.00140929
0.0015059
0.001616
0.00174025
0.00188058
0.00203962
0.00221843
0.00242398
0.00265887
0.00292727
0.00323224
0.00357734
0.00397014
0.00441952
0.00491541
0.00545901
0.00607766
0.00678542
0.0076482
0.00855616
0.00948565
0.0122204
0.00107416
0.00114662
0.00122912
0.00132339
0.0014304
0.00155233
0.00169085
0.00184948
0.00203112
0.00223962
0.00247833
0.00275065
0.00306169
0.00341925
0.00382313
0.00427223
0.00477928
0.00535269
0.00602588
0.00681727
0.00749872
0.00916021
0.000814894
0.000866609
0.00092608
0.000994363
0.00107274
0.00116247
0.00126541
0.00138349
0.00151941
0.00167581
0.00185613
0.00206326
0.00230127
0.00257577
0.00289042
0.00324658
0.00365027
0.00410909
0.00463023
0.00527571
0.00582085
0.00701252
0.000618891
0.000654447
0.000695523
0.000743029
0.000797872
0.000861185
0.000934262
0.00101876
0.00111634
0.00122937
0.00136013
0.00151159
0.00168661
0.00188957
0.00212404
0.00239376
0.00270217
0.00305674
0.00345468
0.00395305
0.00439097
0.00529065
0.000476091
0.000499445
0.000526397
0.000558275
0.000594895
0.000637457
0.000686927
0.00074453
0.000811567
0.000889535
0.000980415
0.00108615
0.00120935
0.00135293
0.00151988
0.00171418
0.00193892
0.00220025
0.00249515
0.00286152
0.00320361
0.00387082
0.000372072
0.000389093
0.000408361
0.000430749
0.000453954
0.000480214
0.000511632
0.000548304
0.000591645
0.000642522
0.000702325
0.000772582
0.000854907
0.000951699
0.00106462
0.00119742
0.00135262
0.00153503
0.00174364
0.00200069
0.00225206
0.00272995
0.000291653
0.000303735
0.000317033
0.000332383
0.000348792
0.000367893
0.000389383
0.000415131
0.000441885
0.000473161
0.000509952
0.000554009
0.000605889
0.00066771
0.000739691
0.000825161
0.000926125
0.00104575
0.00118464
0.00135547
0.00152784
0.0018526
0.000233564
0.000241473
0.00025018
0.000260108
0.000271078
0.000284069
0.000298742
0.000315321
0.000334158
0.000355251
0.000380151
0.000408382
0.00044094
0.000479619
0.000524442
0.000575371
0.000636893
0.000710675
0.000797021
0.00090358
0.00101322
0.00121962
0.000191828
0.000196781
0.000202455
0.000208954
0.000215865
0.00022441
0.000233548
0.000244224
0.000256103
0.000270645
0.00028663
0.00030396
0.000324489
0.000350707
0.000377858
0.00040908
0.000447686
0.000492443
0.000543798
0.000607163
0.000674224
0.000797797
0.00016116
0.000164648
0.000168018
0.000172439
0.00017735
0.000182688
0.000188732
0.00019517
0.000203061
0.000211595
0.000222047
0.000232935
0.000247064
0.000262291
0.000279069
0.000298815
0.000322165
0.000348029
0.000378442
0.000416991
0.000456372
0.000526821
0.000139771
0.000141643
0.000144618
0.000147307
0.00015041
0.000153401
0.000157241
0.000161652
0.000166526
0.00017195
0.000178109
0.000185584
0.000192998
0.000201784
0.000213177
0.000225511
0.000239066
0.00025461
0.000273435
0.000295425
0.000317676
0.000358
0.00012663
0.000128124
0.000129932
0.000130787
0.0001323
0.000134582
0.00013676
0.000139359
0.000142289
0.000145615
0.000149081
0.000153294
0.000158721
0.000164399
0.000170715
0.000177745
0.000185872
0.000195401
0.000205851
0.000218276
0.000230717
0.000253883
0.000117746
0.00011779
0.000118335
0.000119501
0.000120464
0.000121825
0.0001231
0.000124432
0.000126238
0.000127872
0.000130097
0.000133003
0.000135843
0.000139129
0.000142794
0.000147095
0.00015217
0.000157416
0.000163102
0.000170184
0.000177259
0.000190205
0.000108591
0.000109516
0.000109846
0.000110588
0.000111578
0.000112229
0.00011278
0.000113618
0.000114505
0.000115642
0.000117144
0.000118701
0.000120696
0.000122874
0.0001254
0.000128075
0.000130797
0.000133618
0.000136901
0.000141135
0.000144808
0.000152133
0.00010117
0.00010135
0.000101985
0.000102884
0.000103514
0.000103873
0.00010454
0.000105455
0.000106266
0.000107096
0.000108125
0.000109383
0.000110592
0.000111911
0.000113181
0.000114671
0.000116232
0.000118045
0.000120116
0.000122724
0.000125276
0.000129606
9.50828e-05
9.52237e-05
9.56082e-05
9.60834e-05
9.64658e-05
9.69607e-05
9.75851e-05
9.82485e-05
9.88447e-05
9.94431e-05
0.000100184
0.000101067
0.000101783
0.000102697
0.000103799
0.000104739
0.000105898
0.000107291
0.00010875
0.000110492
0.000111884
0.000114393
9.05141e-05
9.08779e-05
9.11921e-05
9.1135e-05
9.1354e-05
9.18721e-05
9.23018e-05
9.2443e-05
9.27552e-05
9.33202e-05
9.36717e-05
9.42151e-05
9.49549e-05
9.56175e-05
9.62082e-05
9.69309e-05
9.785e-05
9.86264e-05
9.94986e-05
0.000100588
0.00010139
0.000103057
8.64369e-05
8.63986e-05
8.65057e-05
8.65757e-05
8.6935e-05
8.72189e-05
8.72363e-05
8.74455e-05
8.78596e-05
8.81892e-05
8.8514e-05
8.89205e-05
8.93681e-05
8.9703e-05
9.01188e-05
9.06804e-05
9.11122e-05
9.16484e-05
9.23013e-05
9.2911e-05
9.34895e-05
9.46861e-05
8.19833e-05
8.21308e-05
8.22782e-05
8.26022e-05
8.26429e-05
8.28083e-05
8.31405e-05
8.34449e-05
8.37232e-05
8.39888e-05
8.4274e-05
8.44586e-05
8.46944e-05
8.50555e-05
8.53049e-05
8.56218e-05
8.60258e-05
8.63276e-05
8.66777e-05
8.71603e-05
8.75055e-05
8.82449e-05
7.93987e-05
7.94175e-05
7.94935e-05
7.96381e-05
7.9764e-05
7.99422e-05
8.00988e-05
8.02808e-05
8.03439e-05
8.04774e-05
8.07076e-05
8.07746e-05
8.09227e-05
8.11401e-05
8.13702e-05
8.15893e-05
8.18322e-05
8.21495e-05
8.23796e-05
8.27173e-05
8.30531e-05
8.35495e-05
7.73267e-05
7.73115e-05
7.73594e-05
7.7331e-05
7.73235e-05
7.74154e-05
7.73973e-05
7.74742e-05
7.74903e-05
7.75417e-05
7.77253e-05
7.77445e-05
7.78408e-05
7.80542e-05
7.8133e-05
7.82885e-05
7.85026e-05
7.86546e-05
7.88597e-05
7.91314e-05
7.93169e-05
7.96473e-05
7.61198e-05
7.61276e-05
7.60321e-05
7.59779e-05
7.59802e-05
7.58989e-05
7.58745e-05
7.58832e-05
7.58393e-05
7.58395e-05
7.58687e-05
7.5843e-05
7.58575e-05
7.59082e-05
7.59465e-05
7.60113e-05
7.60829e-05
7.61795e-05
7.62872e-05
7.63733e-05
7.64278e-05
7.65851e-05
7.48603e-05
7.47957e-05
7.47218e-05
7.47523e-05
7.46506e-05
7.46203e-05
7.46534e-05
7.45693e-05
7.4545e-05
7.45615e-05
7.45657e-05
7.45954e-05
7.46216e-05
7.46316e-05
7.46542e-05
7.46333e-05
7.46316e-05
7.46357e-05
7.46267e-05
7.46408e-05
7.46794e-05
7.46757e-05
7.37841e-05
7.37115e-05
7.36722e-05
7.36155e-05
7.35659e-05
7.34725e-05
7.34053e-05
7.33974e-05
7.32998e-05
7.32652e-05
7.32857e-05
7.32149e-05
7.3194e-05
7.32264e-05
7.3223e-05
7.31826e-05
7.32026e-05
7.31879e-05
7.31908e-05
7.31966e-05
7.31814e-05
7.32176e-05
7.31722e-05
7.31106e-05
7.30076e-05
7.2926e-05
7.28714e-05
7.28096e-05
7.27519e-05
7.26838e-05
7.26176e-05
7.25356e-05
7.2471e-05
7.24247e-05
7.23592e-05
7.23098e-05
7.22821e-05
7.22263e-05
7.21842e-05
7.21621e-05
7.21137e-05
7.20825e-05
7.20487e-05
7.20321e-05
7.26146e-05
7.25231e-05
7.24492e-05
7.23601e-05
7.22541e-05
7.21563e-05
7.2079e-05
7.19737e-05
7.18799e-05
7.1805e-05
7.17136e-05
7.16329e-05
7.15694e-05
7.14967e-05
7.1441e-05
7.1383e-05
7.13218e-05
7.12748e-05
7.12101e-05
7.1156e-05
7.1112e-05
7.10633e-05
7.19991e-05
7.19067e-05
7.18209e-05
7.17511e-05
7.16576e-05
7.15712e-05
7.14995e-05
7.14077e-05
7.13271e-05
7.12575e-05
7.11813e-05
7.1095e-05
7.10241e-05
7.09606e-05
7.08871e-05
7.08068e-05
7.07324e-05
7.06706e-05
7.05941e-05
7.05257e-05
7.0467e-05
7.04028e-05
7.15707e-05
7.14815e-05
7.13932e-05
7.13178e-05
7.12232e-05
7.11346e-05
7.10582e-05
7.09655e-05
7.08799e-05
7.08008e-05
7.07153e-05
7.06234e-05
7.05362e-05
7.04574e-05
7.03684e-05
7.02843e-05
7.02081e-05
7.01225e-05
7.00415e-05
6.99678e-05
6.98871e-05
6.98166e-05
7.1353e-05
7.12486e-05
7.1146e-05
7.10415e-05
7.09405e-05
7.08475e-05
7.07536e-05
7.06534e-05
7.05563e-05
7.04661e-05
7.03662e-05
7.02722e-05
7.01815e-05
7.00902e-05
7.00053e-05
6.99152e-05
6.98269e-05
6.97448e-05
6.96557e-05
6.9571e-05
6.94932e-05
6.94101e-05
7.10544e-05
7.09502e-05
7.08473e-05
7.07477e-05
7.0647e-05
7.05543e-05
7.04532e-05
7.03545e-05
7.02601e-05
7.01598e-05
7.00623e-05
6.99683e-05
6.98718e-05
6.97789e-05
6.96832e-05
6.95869e-05
6.94917e-05
6.93951e-05
6.93014e-05
6.92071e-05
6.91148e-05
6.90259e-05
7.08817e-05
7.07763e-05
7.06761e-05
7.05709e-05
7.04689e-05
7.03731e-05
7.02696e-05
7.01689e-05
7.00729e-05
6.9971e-05
6.98711e-05
6.97789e-05
6.96779e-05
6.958e-05
6.94812e-05
6.93831e-05
6.92847e-05
6.91874e-05
6.90931e-05
6.89959e-05
6.89008e-05
6.881e-05
7.05167e-05
7.04063e-05
7.02965e-05
7.01872e-05
7.00784e-05
6.99701e-05
6.98625e-05
6.97555e-05
6.96491e-05
6.95435e-05
6.94387e-05
6.93349e-05
6.92307e-05
6.9128e-05
6.90263e-05
6.89256e-05
6.88256e-05
6.87264e-05
6.86276e-05
6.85301e-05
6.84324e-05
6.83362e-05
0.0028873
0.00339073
0.00396259
0.00460751
0.00533794
0.00616537
0.0070982
0.00814223
0.00930075
0.0105744
0.0119614
0.0134575
0.0150564
0.0167507
0.0185325
0.0203946
0.0223315
0.0243413
0.0264265
0.028605
0.0309017
0.0333579
0.0360386
0.0390454
0.042539
0.0467788
0.0522049
0.0596025
0.0705611
0.0886653
0.123474
0.205837
0.456646
1.36851
5.73139
0.00302375
0.0035298
0.00411574
0.00477976
0.00552842
0.00637071
0.00731429
0.00836453
0.00952442
0.0107944
0.0121724
0.0136542
0.0152335
0.0169033
0.0186561
0.0204855
0.022387
0.0243598
0.0264079
0.028551
0.0308159
0.033246
0.0359095
0.0389125
0.0424224
0.0467102
0.0522371
0.059833
0.0711869
0.0901448
0.127056
0.215487
0.485282
1.43973
5.85999
0.00316931
0.00368058
0.004276
0.00495394
0.005718
0.00657457
0.00752944
0.00858682
0.00974891
0.0110157
0.0123848
0.013852
0.0154114
0.017056
0.0187792
0.0205752
0.0224408
0.0243761
0.0263867
0.028494
0.0307269
0.033131
0.0357776
0.0387774
0.0423048
0.0466423
0.0522737
0.0600748
0.0718423
0.0917099
0.130895
0.226005
0.514978
1.5094
5.96424
0.00331876
0.00384072
0.00444673
0.00513644
0.00591315
0.00678173
0.00774645
0.00881018
0.0099741
0.0112375
0.0125976
0.0140499
0.0155888
0.0172079
0.018901
0.0206633
0.0224925
0.0243901
0.0263631
0.0284348
0.0306358
0.0330143
0.0356446
0.0386421
0.0421881
0.0465776
0.0523169
0.0603332
0.0725407
0.0933884
0.135052
0.237303
0.546388
1.5767
6.0306
0.0034724
0.00400812
0.00462623
0.00532765
0.00611569
0.00699457
0.00796747
0.00903616
0.0102008
0.01146
0.0128104
0.0142475
0.0157656
0.0173588
0.0190215
0.0207499
0.0225427
0.0244027
0.0263381
0.0283746
0.0305443
0.0328979
0.0355131
0.03851
0.0420773
0.0465232
0.0523797
0.0606279
0.0733106
0.0952217
0.139573
0.249491
0.578206
1.63599
6.05621
0.00363044
0.00418112
0.00481259
0.00552616
0.00632524
0.00721347
0.0081933