/*--------------------------------*- C++ -*----------------------------------*\
| =========                 |                                                 |
| \\      /  F ield         | OpenFOAM: The Open Source CFD Toolbox           |
|  \\    /   O peration     | Version:  v2012                                 |
|   \\  /    A nd           | Website:  www.openfoam.com                      |
|    \\/     M anipulation  |                                                 |
\*---------------------------------------------------------------------------*/
FoamFile
{
    version     2.0;
    format      ascii;
    class       volScalarField;
    location    "1";
    object      k;
}
// * * * * * * * * * * * * * * * * * * * * * * * * * * * * * * * * * * * * * //

dimensions      [0 2 -2 0 0 0 0];


internalField   nonuniform List<scalar> 
76776
(
0.000711945
0.000822662
0.00105512
0.00124772
0.00141244
0.0015595
0.00169397
0.00181819
0.00193506
0.00204675
0.00215484
0.0022606
0.00236506
0.00246915
0.00257371
0.00268053
0.00279035
0.00290424
0.00302351
0.00314915
0.00328397
0.00343157
0.00359657
0.00378462
0.0040029
0.00426027
0.00456725
0.00493542
0.00537574
0.00589762
0.0065062
0.00720021
0.00795839
0.0087639
0.00967201
0.000687092
0.000789698
0.00101203
0.00119648
0.00135462
0.00149645
0.001627
0.00174868
0.0018646
0.00197692
0.00208728
0.00219771
0.00230919
0.00242272
0.00253953
0.00266007
0.00278622
0.00292047
0.00306601
0.00322697
0.00340828
0.00361621
0.0038586
0.00414494
0.00448623
0.00489343
0.00537668
0.00594361
0.00659844
0.00733832
0.00815536
0.00902675
0.00991813
0.0107471
0.0116132
0.000685946
0.000782753
0.00100281
0.00118259
0.00133412
0.00146918
0.00159447
0.00171402
0.00183053
0.00194601
0.00206206
0.00217944
0.00229988
0.00242521
0.00255775
0.00270029
0.00285649
0.00303069
0.00322835
0.00345635
0.00372301
0.00403818
0.00441218
0.00485497
0.0053748
0.00597737
0.00666342
0.00742838
0.00825939
0.00914042
0.0100363
0.0109274
0.011649
0.0120997
0.0125284
0.000702482
0.000787949
0.00100539
0.00118281
0.00133223
0.00146584
0.00159077
0.00171142
0.00183078
0.0019512
0.00207508
0.00220485
0.00234329
0.00249375
0.00266012
0.00284724
0.00306117
0.00330922
0.00360013
0.00394334
0.00434834
0.00482387
0.00537692
0.00601094
0.00672469
0.00751101
0.00835688
0.00924055
0.010133
0.0110024
0.011683
0.0121083
0.012401
0.012455
0.0124171
0.000732247
0.000797679
0.00101367
0.00119145
0.00134203
0.00147798
0.00160701
0.00173435
0.00186398
0.00199957
0.00214457
0.00230287
0.00247904
0.00267853
0.00290789
0.00317489
0.00348797
0.00385598
0.00428764
0.00479086
0.00537126
0.00603056
0.00676576
0.00756888
0.00842481
0.00931214
0.0102011
0.0110613
0.0117104
0.0121045
0.0123632
0.0124089
0.0122165
0.0118198
0.0113943
0.000771609
0.000812633
0.00102949
0.00121183
0.00136885
0.00151438
0.00165704
0.00180286
0.00195702
0.00212463
0.00231111
0.00252261
0.00276625
0.00304965
0.00338101
0.00376882
0.00422152
0.0047463
0.00534758
0.00602586
0.0067773
0.00759251
0.00845652
0.00934533
0.0102344
0.0110802
0.0117177
0.0121001
0.0123424
0.0123561
0.0121145
0.0117303
0.010953
0.00987591
0.00897998
0.00081795
0.000838616
0.00106199
0.00125622
0.00143023
0.00159769
0.00176844
0.00194993
0.00214924
0.00237365
0.00263054
0.00292778
0.0032736
0.00367671
0.00414528
0.00468583
0.00530205
0.00599396
0.006757
0.007582
0.00845259
0.0093462
0.010233
0.0110693
0.0116962
0.0120733
0.0123088
0.0122991
0.0120306
0.0115824
0.0107252
0.00971174
0.00868794
0.00788265
0.00737642
0.000871712
0.000880997
0.00112529
0.00134724
0.00155355
0.00176063
0.00197978
0.00222082
0.00249236
0.00280298
0.00316175
0.00357758
0.00405848
0.00461073
0.0052378
0.00593934
0.00671078
0.00754211
0.00841801
0.00931325
0.0102009
0.0110326
0.0116546
0.012027
0.0122554
0.0122376
0.0119675
0.0114969
0.0105208
0.00937242
0.00845
0.00776227
0.00730711
0.00698359
0.00676448
0.000936745
0.000962581
0.00124924
0.00151716
0.00177631
0.00204578
0.00233846
0.00266575
0.00303845
0.0034663
0.00395781
0.00451951
0.00515505
0.0058642
0.0066422
0.00747931
0.00835886
0.00925719
0.0101447
0.0109732
0.011592
0.0119634
0.0121843
0.0121595
0.0118911
0.0113829
0.0104504
0.00936145
0.00851324
0.00808503
0.0076788
0.00732554
0.007039
0.00679566
0.00661817
0.00102277
0.00111143
0.00146823
0.0018051
0.00214027
0.00249502
0.00288641
0.00332762
0.00382904
0.00439838
0.00504013
0.00575463
0.00653755
0.00737907
0.00826322
0.00916527
0.0100542
0.0108804
0.0115093
0.0118866
0.0121096
0.0120736
0.0117875
0.0112626
0.0103318
0.00926704
0.00835077
0.00769863
0.00726654
0.00696589
0.00675772
0.0066185
0.00652466
0.00645988
0.0064148
0.0011323
0.00134384
0.00179755
0.00222537
0.00265789
0.00312263
0.00363762
0.00421482
0.00486132
0.00557917
0.00636505
0.0072099
0.00809768
0.00900482
0.00989668
0.0107302
0.0113784
0.0117818
0.0120078
0.0119726
0.0116746
0.0111006
0.0101671
0.00910236
0.00819723
0.00758163
0.00721195
0.00700741
0.00688216
0.00677498
0.00668294
0.00661563
0.00655529
0.00650035
0.00644843
0.00126014
0.0016483
0.00221853
0.00275925
0.00331275
0.00390877
0.0045644
0.00528707
0.00607667
0.00692595
0.00782005
0.00873548
0.00963832
0.010489
0.0111691
0.0116094
0.0118655
0.0118463
0.0115634
0.0109921
0.00997217
0.00885512
0.00801929
0.00750141
0.00717243
0.00696517
0.00683201
0.00674934
0.00669038
0.00664636
0.00661221
0.00657408
0.00653988
0.00650221
0.00645391
0.00137966
0.00197242
0.00269211
0.00337031
0.00406531
0.00480771
0.00560964
0.00646996
0.00737721
0.00830956
0.00923465
0.010112
0.0108422
0.0113396
0.0116373
0.0116629
0.0114076
0.0108351
0.00990163
0.00886782
0.00813414
0.00778627
0.00747485
0.00721052
0.0069754
0.00683798
0.00675724
0.00671123
0.00667777
0.00665263
0.00663296
0.00661109
0.00657987
0.00653154
0.006465
0.00148091
0.00232373
0.00321177
0.00404395
0.00489182
0.00578251
0.00671727
0.0076803
0.00864231
0.00956087
0.0103679
0.0109468
0.0113099
0.011416
0.0112145
0.0107028
0.00978695
0.0087142
0.00786753
0.00734607
0.00703334
0.00682731
0.00671061
0.00666599
0.006684
0.00668643
0.00668842
0.00669059
0.00669414
0.00669369
0.00668379
0.00665816
0.00661132
0.00654401
0.00646285
0.00156507
0.00269753
0.00377495
0.00477289
0.00577264
0.00679233
0.00781468
0.00880129
0.00970435
0.010408
0.0108618
0.0110765
0.0109585
0.0105532
0.00973373
0.00875883
0.00793946
0.00749717
0.00722152
0.00699711
0.00684069
0.00675549
0.00672517
0.00671446
0.00672199
0.00674114
0.00676218
0.00677866
0.00678258
0.00677352
0.00674701
0.00669866
0.0066294
0.0065461
0.00644595
0.00162551
0.00310104
0.00438178
0.00554374
0.00667272
0.00776751
0.00878581
0.00966645
0.0102754
0.0106398
0.0106643
0.0103886
0.00972091
0.00878435
0.00787183
0.00724072
0.00690191
0.00671473
0.00662717
0.006622
0.00664827
0.00667367
0.00670381
0.0067514
0.00679796
0.00683571
0.00685969
0.00686712
0.00685911
0.00683309
0.00678611
0.00671755
0.00663351
0.00653302
0.00641504
0.00165152
0.00356612
0.00504849
0.00634618
0.00754188
0.00860992
0.00947723
0.0100271
0.0102915
0.0101732
0.00971899
0.00890949
0.00803323
0.00737361
0.00702419
0.00682543
0.00669312
0.00663502
0.0066303
0.0066516
0.00670108
0.00676264
0.00682525
0.00687954
0.0069208
0.00694641
0.00695496
0.00694757
0.00692258
0.00687683
0.00681011
0.00672569
0.00662576
0.00650813
0.0063737
0.00168328
0.00408975
0.00575145
0.00712165
0.00827906
0.00916752
0.00969262
0.00985607
0.00964196
0.00906582
0.00824658
0.00745533
0.00688922
0.00661557
0.00649914
0.00649132
0.00652231
0.00656565
0.0066377
0.00672295
0.0068078
0.00688413
0.00694736
0.00699505
0.00702575
0.0070385
0.00703389
0.00701194
0.00696838
0.00690546
0.00682212
0.00672349
0.0066071
0.00647371
0.00632428
0.00206179
0.00468469
0.00643901
0.00777078
0.00874923
0.00929865
0.00942424
0.00917605
0.0085614
0.00778194
0.00711261
0.00671497
0.00654486
0.00646495
0.00646301
0.00649697
0.00657301
0.00666969
0.00677026
0.0068649
0.00694829
0.0070174
0.00707031
0.00710574
0.0071228
0.00712125
0.00710305
0.00706315
0.00700377
0.00692288
0.00682547
0.00671142
0.00658004
0.00643223
0.00626909
0.00253162
0.00531468
0.00705236
0.00822597
0.00889581
0.00907943
0.00884574
0.00824317
0.00749461
0.00686429
0.0064725
0.00633097
0.00632793
0.00636746
0.0064457
0.00655811
0.00667923
0.00679687
0.00690454
0.00699859
0.00707674
0.0071375
0.00717985
0.00720309
0.00720681
0.00719306
0.00715823
0.00710284
0.0070274
0.00693223
0.00682114
0.00669238
0.00654685
0.00638559
0.00620977
0.00310168
0.00594512
0.0075943
0.00853829
0.00885663
0.00867541
0.0081099
0.00736384
0.00674979
0.00640036
0.00628258
0.00627314
0.00632102
0.00642823
0.00655935
0.00669451
0.00682379
0.00694175
0.00704511
0.00713181
0.00720051
0.00725029
0.00728053
0.00729083
0.00728232
0.00725381
0.00720377
0.00713396
0.00704263
0.00693459
0.00680953
0.00666713
0.00650848
0.00633478
0.0061473
0.00372989
0.0065368
0.00798529
0.00859754
0.00856214
0.00811226
0.00736156
0.00670758
0.0063034
0.00616955
0.00618544
0.00625477
0.00638683
0.0065373
0.00668885
0.0068325
0.00696329
0.00707828
0.00717566
0.00725425
0.00731329
0.00735224
0.00737073
0.00736884
0.00734803
0.00730459
0.00724077
0.00715613
0.00705187
0.00693111
0.00679248
0.00663704
0.006466
0.00628066
0.00608242
0.00122887
0.00194093
0.00246519
0.00283012
0.00311272
0.00334665
0.00354826
0.00372653
0.00388688
0.00403282
0.00416674
0.00429038
0.00440501
0.00451165
0.00461111
0.00470405
0.00479107
0.00487271
0.00494946
0.0050218
0.00509022
0.00515518
0.00521717
0.0052767
0.00533427
0.00539042
0.00544571
0.00550069
0.00555594
0.00561205
0.0056696
0.00572917
0.00579129
0.0058565
0.00592528
0.00120101
0.00199547
0.00253514
0.002907
0.00319452
0.00343246
0.00363752
0.00381882
0.00398186
0.0041302
0.00426626
0.00439176
0.004508
0.00461597
0.0047165
0.00481024
0.00489779
0.00497969
0.00505642
0.00512846
0.0051963
0.00526038
0.00532121
0.00537927
0.00543507
0.00548913
0.00554199
0.00559419
0.00564631
0.00569889
0.0057525
0.00580768
0.00586493
0.00592473
0.00598752
0.0011651
0.00203827
0.00259024
0.00296728
0.00325855
0.00349964
0.00370747
0.00389124
0.0040565
0.00420683
0.00434466
0.00447173
0.00458933
0.00469845
0.0047999
0.00489435
0.00498238
0.00506451
0.00514124
0.00521305
0.0052804
0.00534376
0.00540361
0.00546043
0.00551474
0.00556705
0.00561789
0.0056678
0.00571733
0.00576703
0.00581744
0.00586909
0.00592246
0.00597803
0.00603619
0.00112274
0.00206841
0.00262925
0.00300959
0.00330331
0.0035466
0.00375645
0.0039421
0.00410909
0.00426099
0.00440023
0.00452855
0.00464723
0.00475727
0.00485945
0.00495446
0.00504287
0.0051252
0.00520194
0.00527357
0.00534054
0.00540333
0.00546242
0.0055183
0.00557146
0.00562242
0.00567172
0.00571989
0.00576748
0.00581504
0.0058631
0.0059122
0.00596282
0.00601544
0.00607047
0.00107344
0.00208437
0.00265083
0.00303281
0.00332788
0.00357251
0.0037837
0.00397064
0.00413885
0.00429188
0.00443214
0.00456134
0.00468078
0.00479145
0.00489414
0.00498952
0.00507816
0.0051606
0.00523732
0.00530879
0.00537549
0.00543789
0.00549645
0.00555168
0.00560407
0.00565414
0.00570242
0.00574946
0.00579582
0.00584203
0.00588866
0.00593626
0.0059853
0.0060363
0.00608972
0.00102516
0.0020853
0.00265443
0.00303704
0.00333276
0.0035781
0.00378997
0.00397755
0.00414634
0.00429986
0.00444053
0.0045701
0.00468985
0.00480076
0.00490365
0.00499917
0.0050879
0.00517037
0.00524707
0.00531847
0.00538503
0.00544722
0.00550552
0.00556043
0.00561243
0.00566207
0.00570987
0.00575639
0.00580219
0.00584783
0.00589389
0.00594093
0.00598948
0.00604009
0.0060933
0.00104871
0.00208097
0.00264731
0.00302863
0.00332328
0.00356765
0.00377867
0.00396551
0.00413365
0.00428664
0.00442688
0.00455609
0.00467554
0.00478622
0.00488892
0.00498429
0.00507291
0.00515529
0.00523192
0.00530326
0.00536978
0.00543194
0.00549022
0.00554511
0.00559711
0.00564675
0.00569458
0.00574115
0.00578704
0.00583284
0.00587912
0.00592651
0.00597553
0.00602681
0.00608096
0.00109687
0.00206522
0.00262545
0.00300439
0.00329702
0.00353949
0.00374874
0.00393396
0.00410065
0.00425235
0.00439147
0.00451972
0.00463837
0.00474839
0.00485055
0.00494552
0.00503384
0.00511603
0.00519256
0.00526389
0.00533048
0.00539279
0.00545128
0.00550646
0.00555881
0.00560887
0.00565719
0.00570433
0.00575089
0.00579746
0.00584467
0.00589313
0.00594344
0.00599626
0.0060523
0.00113821
0.00203583
0.00258728
0.0029627
0.00325262
0.00349267
0.0036997
0.00388287
0.0040477
0.00419773
0.00433536
0.0044623
0.00457982
0.0046889
0.00479029
0.00488466
0.00497255
0.00505446
0.00513087
0.00520222
0.00526897
0.00533155
0.00539045
0.00544614
0.00549913
0.00554994
0.00559913
0.00564727
0.00569496
0.00574283
0.0057915
0.00584164
0.00589386
0.00594887
0.00600748
0.00117283
0.00199516
0.00253504
0.0029055
0.00319177
0.00342872
0.00363299
0.00381369
0.00397629
0.00412432
0.00426016
0.00438553
0.00450169
0.00460962
0.00471009
0.00480374
0.00489112
0.00497272
0.005049
0.00512041
0.00518738
0.00525037
0.00530982
0.00536622
0.00542008
0.00547191
0.00552226
0.00557173
0.00562092
0.00567046
0.00572101
0.00577325
0.00582785
0.00588554
0.00594724
0.00120106
0.00194492
0.00247067
0.00283477
0.00311648
0.00334965
0.00355065
0.00372846
0.00388847
0.00403419
0.00416799
0.00429158
0.00440621
0.00451287
0.0046123
0.00470516
0.00479197
0.00487324
0.0049494
0.00502091
0.00508818
0.00515165
0.00521179
0.00526905
0.00532394
0.00537698
0.00542873
0.00547976
0.0055307
0.00558219
0.00563491
0.00568956
0.00574684
0.00580753
0.00587259
0.00122235
0.00188644
0.00239588
0.00275241
0.00302875
0.00325758
0.00345487
0.00362942
0.00378654
0.00392971
0.00406128
0.00418293
0.00429592
0.0044012
0.00449953
0.00459154
0.00467776
0.00475869
0.00483475
0.00490638
0.004974
0.00503804
0.00509895
0.00515719
0.00521324
0.00526764
0.00532093
0.0053737
0.00542658
0.00548021
0.00553529
0.00559256
0.00565272
0.0057166
0.00578519
0.00123199
0.00181607
0.00230993
0.00265891
0.00292974
0.00315405
0.00334746
0.0035186
0.00367271
0.00381322
0.00394247
0.00406211
0.00417339
0.00427724
0.00437444
0.00446559
0.00455122
0.0046318
0.00470778
0.00477957
0.00484759
0.00491225
0.004974
0.00503329
0.0050906
0.00514646
0.00520141
0.00525605
0.00531099
0.00536691
0.00542451
0.00548456
0.00554778
0.00561503
0.00568734
0.00123734
0.00174223
0.00221538
0.00255662
0.00282174
0.00304136
0.00323073
0.00339833
0.00354936
0.00368716
0.00381404
0.00393165
0.0040412
0.00414363
0.00423969
0.00432998
0.00441503
0.0044953
0.00457122
0.0046432
0.00471165
0.00477698
0.00483962
0.00490002
0.00495866
0.00501606
0.00507276
0.00512936
0.00518649
0.00524484
0.00530513
0.00536814
0.00543465
0.00550556
0.00558191
0.00122908
0.00166218
0.00211292
0.0024448
0.00270506
0.00292047
0.00310612
0.00327041
0.00341849
0.00355369
0.00367829
0.00379392
0.0039018
0.00400286
0.00409782
0.00418729
0.00427179
0.00435177
0.00442767
0.00449987
0.00456879
0.00463483
0.00469841
0.00475998
0.00482002
0.00487904
0.0049376
0.00499629
0.00505577
0.00511673
0.00517995
0.00524624
0.00531643
0.0053915
0.00547252
0.00121283
0.0015797
0.00200682
0.0023281
0.00258316
0.00279423
0.00297614
0.00313717
0.00328238
0.00341506
0.00353747
0.00365122
0.00375751
0.00385725
0.00395118
0.0040399
0.00412391
0.00420367
0.00427959
0.00435208
0.00442152
0.00448833
0.00455293
0.00461575
0.00467729
0.00473805
0.00479862
0.00485959
0.00492166
0.00498556
0.00505211
0.0051222
0.00519675
0.00527684
0.00536361
0.00118701
0.00149666
0.00189939
0.00220889
0.00245759
0.00266443
0.00284269
0.00300056
0.00314301
0.0032733
0.00339363
0.00350562
0.00361042
0.00370897
0.00380197
0.00389002
0.00397363
0.00405325
0.00412929
0.00420214
0.00427221
0.00433989
0.00440561
0.00446982
0.00453302
0.00459574
0.00465857
0.00472216
0.00478723
0.00485459
0.00492514
0.0049999
0.00507992
0.00516648
0.00526078
0.00115232
0.00141216
0.00179131
0.00208839
0.00232978
0.00253259
0.00270741
0.0028623
0.00300217
0.00313023
0.00324865
0.00335901
0.00346248
0.00355996
0.00365217
0.00373969
0.00382303
0.00390263
0.0039789
0.00405226
0.00412309
0.00419181
0.00425886
0.00432469
0.00438983
0.00445484
0.00452035
0.00458707
0.00465581
0.00472748
0.00480311
0.00488391
0.00497118
0.00506643
0.00517108
0.00110703
0.00132629
0.00168395
0.00196883
0.00220272
0.00240115
0.0025724
0.00272427
0.00286163
0.00298758
0.00310423
0.00321312
0.00331542
0.00341199
0.00350357
0.00359072
0.00367395
0.00375372
0.00383044
0.00390451
0.00397636
0.00404639
0.00411508
0.00418291
0.00425043
0.00431827
0.00438712
0.0044578
0.00453123
0.0046085
0.00469086
0.0047798
0.00487697
0.00498439
0.0051039
0.00105748
0.00124462
0.00158152
0.00185382
0.00207949
0.00227272
0.00243999
0.00258869
0.00272341
0.00284721
0.00296212
0.00306964
0.00317088
0.00326673
0.00335786
0.00344485
0.00352823
0.00360842
0.00368587
0.00376099
0.00383421
0.00390599
0.0039768
0.0040472
0.00411779
0.00418929
0.0042625
0.00433839
0.00441808
0.0045029
0.00459444
0.00469467
0.00480591
0.00493092
0.00507268
0.00100436
0.00116641
0.00148358
0.00174311
0.00195996
0.00214714
0.00231058
0.00245621
0.00258846
0.00271026
0.0028236
0.00292993
0.00303034
0.00312568
0.00321663
0.00330377
0.00338761
0.00346861
0.00354721
0.00362387
0.00369903
0.00377318
0.00384688
0.00392074
0.00399547
0.00407191
0.00415104
0.00423402
0.00432227
0.00441756
0.0045221
0.00463857
0.0047707
0.00492211
0.00509565
0.00094815
0.00109209
0.00139107
0.00163816
0.00184615
0.00202702
0.00218625
0.00232861
0.00245833
0.00257817
0.00269006
0.00279538
0.0028952
0.00299033
0.00308145
0.00316915
0.00325394
0.0033363
0.00341669
0.00349561
0.00357355
0.00365108
0.00372883
0.00380753
0.00388803
0.00397132
0.00405867
0.00415162
0.0042521
0.00436254
0.0044864
0.00462725
0.0047893
0.00497975
0.00520488
0.000891265
0.00102321
0.00130565
0.00154072
0.00173986
0.00191419
0.0020688
0.00220767
0.00233475
0.00245265
0.0025632
0.00266771
0.0027672
0.00286249
0.00295424
0.00304305
0.00312944
0.00321394
0.00329705
0.00337931
0.00346133
0.00354376
0.00362734
0.00371296
0.00380171
0.00389489
0.00399411
0.00410203
0.00422098
0.00435409
0.00450546
0.00468202
0.00489284
0.00514852
0.00545665
0.000837051
0.000961025
0.00122862
0.00145228
0.00164271
0.00181037
0.00196002
0.00209517
0.00221952
0.00233551
0.00244485
0.00254881
0.00264836
0.00274431
0.00283733
0.00292803
0.00301699
0.00310478
0.003192
0.00327927
0.00336731
0.00345694
0.00354909
0.0036449
0.00374656
0.00385555
0.00397394
0.00410374
0.00424953
0.00441721
0.00461447
0.00485132
0.00514138
0.00550143
0.00593939
0.000787532
0.00090588
0.00116029
0.0013734
0.00155559
0.00171677
0.00186138
0.00199281
0.00211449
0.00222872
0.00233713
0.00244093
0.0025411
0.00263843
0.00273365
0.00282742
0.00292039
0.0030132
0.00310656
0.00320124
0.00329812
0.00339921
0.00350555
0.00361865
0.00373959
0.00387158
0.00401876
0.00418644
0.00438095
0.00461048
0.00488548
0.00521948
0.00563021
0.00614088
0.0067597
0.000747578
0.000863386
0.00110749
0.0013107
0.00148431
0.0016382
0.00177685
0.00190397
0.0020227
0.00213516
0.00224286
0.00234699
0.00244851
0.00254827
0.00264706
0.00274563
0.00284474
0.00294519
0.00304794
0.00315486
0.00326709
0.00338517
0.00351149
0.00364937
0.00380304
0.00397769
0.00417978
0.00441733
0.00469989
0.00503808
0.00544279
0.00592465
0.00649602
0.00717586
0.00799166
0.00583619
0.00591189
0.0059864
0.00605911
0.00612914
0.0061951
0.00625496
0.00630652
0.00634642
0.00637229
0.0063813
0.00638866
0.00635978
0.00646151
0.00652177
0.0068386
0.00762347
0.00951607
0.0116908
0.012371
0.0121257
0.0109632
0.00553415
0.0056195
0.00570522
0.0057908
0.00587548
0.00595815
0.00603712
0.00611037
0.00617512
0.00622849
0.00626554
0.0062952
0.00629154
0.00633898
0.00636245
0.00651791
0.0068274
0.00782809
0.00977549
0.0117121
0.0122803
0.0119196
0.00520865
0.00530127
0.00539572
0.00549162
0.00558837
0.00568507
0.00578039
0.00587259
0.0059594
0.00603815
0.00610379
0.00616003
0.00619011
0.0062276
0.00624752
0.0063233
0.00644293
0.00691663
0.00778962
0.00990376
0.0117017
0.0120849
0.00486343
0.00496085
0.00506136
0.00516477
0.00527063
0.00537829
0.00548674
0.00559457
0.00569995
0.00580065
0.00589244
0.0059756
0.00604017
0.00609585
0.00613278
0.00617904
0.00623513
0.00645671
0.00677838
0.00779824
0.00990334
0.0114886
0.00450275
0.00460243
0.0047063
0.00481424
0.00492608
0.00504134
0.00515936
0.00527905
0.00539901
0.00551744
0.00563117
0.00573876
0.00583428
0.00591826
0.00598458
0.00604094
0.00608638
0.00619119
0.00631635
0.00675266
0.0076989
0.00983051
0.0041308
0.00423051
0.00433504
0.00444472
0.00455931
0.00467874
0.00480257
0.00493014
0.00506033
0.00519185
0.0053224
0.0054501
0.00557106
0.00568327
0.00578179
0.00586618
0.00593266
0.00600504
0.00607366
0.00626347
0.00662951
0.00796835
0.0037516
0.00384883
0.003952
0.00406059
0.00417524
0.00429548
0.00442149
0.00455285
0.004689
0.00482871
0.00497075
0.00511313
0.00525336
0.00538893
0.00551616
0.00563178
0.00573114
0.00581888
0.0058916
0.00598614
0.00613815
0.00681494
0.00336629
0.00346017
0.00355959
0.00366565
0.0037777
0.00389601
0.00402097
0.00415264
0.00429031
0.00443389
0.00458193
0.00473363
0.00488647
0.00503915
0.00518816
0.00533098
0.00546218
0.00558082
0.00568345
0.00577326
0.00585881
0.00619566
0.00297389
0.00306257
0.00315843
0.00326027
0.00336832
0.00348298
0.00360234
0.00373026
0.00386607
0.0040094
0.00415921
0.00431504
0.00447509
0.00463832
0.00480245
0.00496496
0.00512222
0.00527054
0.00540745
0.00552986
0.00561472
0.00583388
0.00258853
0.00267014
0.00275803
0.00285301
0.00295452
0.0030632
0.00317834
0.00330113
0.00343166
0.00357035
0.00371679
0.00387082
0.00403148
0.00419797
0.004369
0.00454278
0.00471656
0.00488737
0.00505153
0.00520972
0.00533131
0.00552783
0.00224023
0.00231116
0.00238846
0.00247236
0.00256327
0.00266118
0.00276658
0.0028795
0.00300062
0.00312999
0.00326803
0.00341455
0.00356944
0.00373206
0.00390192
0.0040779
0.00425832
0.00444101
0.00462277
0.00480424
0.00496471
0.00517999
0.00193341
0.00199227
0.00205695
0.00212792
0.00220538
0.00228974
0.00238136
0.00248077
0.00258809
0.00270404
0.00282862
0.00296247
0.00310541
0.00325762
0.00341869
0.00358832
0.00376553
0.00394914
0.0041369
0.00432885
0.00451253
0.00475289
0.00167485
0.00172037
0.00177094
0.00182807
0.00189067
0.00195967
0.00203544
0.00211854
0.00220937
0.00230827
0.00241589
0.00253239
0.00265848
0.00279415
0.00293975
0.00309521
0.00326035
0.00343459
0.00361683
0.00380673
0.00399707
0.0042491
0.0014556
0.00149481
0.00153749
0.00158496
0.00163197
0.00168297
0.00174116
0.00180571
0.00187778
0.00195741
0.00204523
0.00214172
0.00224715
0.00236218
0.00248683
0.00262184
0.00276729
0.00292335
0.00308969
0.00326623
0.00344866
0.00369452
0.0012539
0.00128682
0.00132184
0.00136088
0.00140105
0.00144608
0.00149437
0.00154993
0.00160427
0.0016644
0.0017311
0.00180616
0.00188907
0.00198096
0.00208153
0.00219192
0.00231261
0.0024437
0.00258579
0.00273924
0.00290167
0.00312445
0.00108438
0.00110937
0.00113616
0.00116573
0.00119741
0.00123369
0.00127334
0.00131646
0.00136339
0.0014134
0.00146992
0.00153029
0.0015955
0.00166803
0.00174877
0.00183212
0.00192509
0.00202822
0.002141
0.00226473
0.00239804
0.00258383
0.000947586
0.000965247
0.00098503
0.00100706
0.00103006
0.00105769
0.00108658
0.00111901
0.00115379
0.00119543
0.00123974
0.00128486
0.00133542
0.00139755
0.00145861
0.00152382
0.00159968
0.00168103
0.00176756
0.00186297
0.00196919
0.00211582
0.000839099
0.000852637
0.000865538
0.000881842
0.000899757
0.000919057
0.00094051
0.000963028
0.000989727
0.00101801
0.00105124
0.00108462
0.00112673
0.00117017
0.00121605
0.0012677
0.00132583
0.00138543
0.00145109
0.00152715
0.00160859
0.00171879
0.000759173
0.000766973
0.000778656
0.000789537
0.000801884
0.00081359
0.000828166
0.000844871
0.00086311
0.000882927
0.00090529
0.000932106
0.000957751
0.000986621
0.00102304
0.00106142
0.00110165
0.00114542
0.00119655
0.00125127
0.00130994
0.0013923
0.00070606
0.000711687
0.000719038
0.000723824
0.000730632
0.00074019
0.000749226
0.000759779
0.000771824
0.000785392
0.000799106
0.000815336
0.000835712
0.000856963
0.00088017
0.000905055
0.000932771
0.000964232
0.000998081
0.00103518
0.00107524
0.00113459
0.00067162
0.000673372
0.00067632
0.000681436
0.000685592
0.000691204
0.000696538
0.000702352
0.000710046
0.000716853
0.000725825
0.000737547
0.000749216
0.000762672
0.000776543
0.000792739
0.000811909
0.000831515
0.000852551
0.000876806
0.00090361
0.000943034
0.00063796
0.000640682
0.000642542
0.000645602
0.000649937
0.00065313
0.000656008
0.000660032
0.000664155
0.000669199
0.000675607
0.000682226
0.000690415
0.000699196
0.000708998
0.000719674
0.00073074
0.000742037
0.000755318
0.000771221
0.000786698
0.000811801
0.000608107
0.000609077
0.000611163
0.000614398
0.000616721
0.000618615
0.000621539
0.000625669
0.000629482
0.000633237
0.00063766
0.00064309
0.000648394
0.00065403
0.000659686
0.000666224
0.000673123
0.000680814
0.000689412
0.000699368
0.000710216
0.000726181
0.000582295
0.000583269
0.000584908
0.000587029
0.000588746
0.000590812
0.000593456
0.000596411
0.000599082
0.000601663
0.000604912
0.00060882
0.000611925
0.000615908
0.000620903
0.000625143
0.000630192
0.000636013
0.00064215
0.000649105
0.000655493
0.000665287
0.000563967
0.000565712
0.00056714
0.000567115
0.000567853
0.000569755
0.000571115
0.000571873
0.000573364
0.000576023
0.000577686
0.000580071
0.000583421
0.000586482
0.000589093
0.000592296
0.000596377
0.000599822
0.000603812
0.000608487
0.000612399
0.00061907
0.000546621
0.000546672
0.000547254
0.000547826
0.000548619
0.000550709
0.000550847
0.000551727
0.000553544
0.000555007
0.000556378
0.000558142
0.000560176
0.00056161
0.000563501
0.000566033
0.000568011
0.000570455
0.000573519
0.000576205
0.000579094
0.000584097
0.000526947
0.000527499
0.000528099
0.00052933
0.000529851
0.00053081
0.000532459
0.000533876
0.000535116
0.000536335
0.000537651
0.000538474
0.000539599
0.000541251
0.000542397
0.000543901
0.000545855
0.000547389
0.000549226
0.000551537
0.000553433
0.000556676
0.000514803
0.000514913
0.000515316
0.000516001
0.000516608
0.000517441
0.000518209
0.000518979
0.000519446
0.000520092
0.000521077
0.000521637
0.000522506
0.000523723
0.000524844
0.000525789
0.000526943
0.000528496
0.000529703
0.000531292
0.000533056
0.00053538
0.000505418
0.000505548
0.000505877
0.000505834
0.000505897
0.000506457
0.000506443
0.000506694
0.000506883
0.000507209
0.000508008
0.000508194
0.000508684
0.000509561
0.000510022
0.000510715
0.000511771
0.000512532
0.000513543
0.000514824
0.000515843
0.000517469
0.00049863
0.000498718
0.000498391
0.000498366
0.000498397
0.000498307
0.000498399
0.000498592
0.000498396
0.000498626
0.000498853
0.000498725
0.00049879
0.000499054
0.000499293
0.000499681
0.000500097
0.000500582
0.000501093
0.000501634
0.000501984
0.000502838
0.000492416
0.000492099
0.00049205
0.000492286
0.000492228
0.000492197
0.000492348
0.000492197
0.000492201
0.000492313
0.0004923
0.000492383
0.000492555
0.000492672
0.000492801
0.000492621
0.000492832
0.000493013
0.00049288
0.000492759
0.000493246
0.000493458
0.000487139
0.000486982
0.00048697
0.000486838
0.000486876
0.000486584
0.000486496
0.000486594
0.00048638
0.000486336
0.000486443
0.000486372
0.000486322
0.000486364
0.000486211
0.000486128
0.000486146
0.000485997
0.000486054
0.000486032
0.00048615
0.000486248
0.000484252
0.000484192
0.000483928
0.000483738
0.000483649
0.000483504
0.000483368
0.000483191
0.000483018
0.000482749
0.000482543
0.000482438
0.000482187
0.000482009
0.000481927
0.000481703
0.000481537
0.000481464
0.000481274
0.000481147
0.000481034
0.000480977
0.000480901
0.00048062
0.000480444
0.000480215
0.000479902
0.000479636
0.000479468
0.000479164
0.000478918
0.000478767
0.000478526
0.000478348
0.000478244
0.000478071
0.000477956
0.000477816
0.000477659
0.000477558
0.000477363
0.000477202
0.000477094
0.00047693
0.000478489
0.000478182
0.000477912
0.000477723
0.000477422
0.00047716
0.000476971
0.00047668
0.000476431
0.000476245
0.000476027
0.00047576
0.000475523
0.000475339
0.000475116
0.000474853
0.000474617
0.000474438
0.000474185
0.000473966
0.000473798
0.000473586
0.00047649
0.000476171
0.000475862
0.000475617
0.000475279
0.000474974
0.000474727
0.000474399
0.000474099
0.000473835
0.000473547
0.000473228
0.000472931
0.000472677
0.000472374
0.000472098
0.000471861
0.000471581
0.000471323
0.000471095
0.000470843
0.000470634
0.000475098
0.000474737
0.000474388
0.000474029
0.000473684
0.00047338
0.000473079
0.000472746
0.000472431
0.000472155
0.000471834
0.000471541
0.00047126
0.000470977
0.000470721
0.000470438
0.000470165
0.000469919
0.000469637
0.000469372
0.000469139
0.000468877
0.000473683
0.000473316
0.000472955
0.000472607
0.000472259
0.000471951
0.000471604
0.000471271
0.000470964
0.000470627
0.000470308
0.000469997
0.000469682
0.000469381
0.000469067
0.000468752
0.000468442
0.000468124
0.00046782
0.000467511
0.000467209
0.000466923
0.000473009
0.00047265
0.000472312
0.000471946
0.000471591
0.000471264
0.0004709
0.00047055
0.000470224
0.000469866
0.000469518
0.000469201
0.00046885
0.000468513
0.000468172
0.000467833
0.000467491
0.000467155
0.000466833
0.000466495
0.000466166
0.000465856
0.000471264
0.000470901
0.000470539
0.000470178
0.000469819
0.000469461
0.000469105
0.00046875
0.000468396
0.000468045
0.000467688
0.000467338
0.000466987
0.000466632
0.000466297
0.000465934
0.000465585
0.000465275
0.000464875
0.000464496
0.000464237
0.000463827
0.00391843
0.00420168
0.00449223
0.00478588
0.00508383
0.00538679
0.00569396
0.00600351
0.00631291
0.00661903
0.00691835
0.00720701
0.00748106
0.00773649
0.00796946
0.00817633
0.00835377
0.00849883
0.00861013
0.00868506
0.00872142
0.00871799
0.00867473
0.00858842
0.00845895
0.00828517
0.00806549
0.00779793
0.00748078
0.00711579
0.00672323
0.0064121
0.00661849
0.00856325
0.0155844
0.00404774
0.00432318
0.00461177
0.00490616
0.00520432
0.00550569
0.00580922
0.00611315
0.00641513
0.00671225
0.00700122
0.00727845
0.0075402
0.00778277
0.00800253
0.00819612
0.00836046
0.00849284
0.00859227
0.00865529
0.00868078
0.00866789
0.00861572
0.00852195
0.00838642
0.00820795
0.00798507
0.00771607
0.00739993
0.0070405
0.00666521
0.00640442
0.00674746
0.00887864
0.0158343
0.00417564
0.00444604
0.00473074
0.005023
0.0053195
0.00561854
0.00591842
0.00621707
0.00651206
0.00680059