/*--------------------------------*- C++ -*----------------------------------*\
| =========                 |                                                 |
| \\      /  F ield         | OpenFOAM: The Open Source CFD Toolbox           |
|  \\    /   O peration     | Version:  v2012                                 |
|   \\  /    A nd           | Website:  www.openfoam.com                      |
|    \\/     M anipulation  |                                                 |
\*---------------------------------------------------------------------------*/
FoamFile
{
    version     2.0;
    format      ascii;
    class       volScalarField;
    location    "1";
    object      nut;
}
// * * * * * * * * * * * * * * * * * * * * * * * * * * * * * * * * * * * * * //

dimensions      [0 2 -1 0 0 0 0];


internalField   nonuniform List<scalar> 
76776
(
8.54073e-07
3.32111e-06
9.46029e-06
1.80646e-05
2.81918e-05
3.93532e-05
5.11933e-05
6.33613e-05
7.56206e-05
8.77783e-05
9.96429e-05
0.000111018
0.000121775
0.000131812
0.000140941
0.000149053
0.00015578
0.00016094
0.000164377
0.000165912
0.000165583
0.000163521
0.000159952
0.000155167
0.00014954
0.000143507
0.000137531
0.000132046
0.000127393
0.000123852
0.000121569
0.000120533
0.000120589
0.000121522
0.000122693
8.37072e-07
3.2487e-06
9.28834e-06
1.77592e-05
2.76546e-05
3.84305e-05
4.96825e-05
6.10226e-05
7.21966e-05
8.30046e-05
9.32966e-05
0.000103022
0.000112025
0.000120045
0.000126775
0.000131923
0.000135457
0.000137351
0.000137657
0.000136519
0.000134139
0.000130796
0.000126837
0.000122646
0.000118616
0.000115072
0.000112287
0.000110466
0.000109704
0.000109952
0.000111084
0.000112854
0.000114976
0.000117314
0.000118432
8.3786e-07
3.26581e-06
9.45044e-06
1.80462e-05
2.78519e-05
3.82207e-05
4.87331e-05
5.91074e-05
6.91373e-05
7.86526e-05
8.75053e-05
9.53152e-05
0.00010186
0.000106999
0.000110713
0.000112989
0.000113915
0.000113629
0.000112336
0.000110308
0.000107854
0.000105309
0.000102965
0.000101062
9.98082e-05
9.93417e-05
9.96896e-05
0.00010078
0.000102496
0.000104629
0.000107088
0.000109569
0.000110236
0.000111662
0.000114386
8.46306e-07
3.26065e-06
9.52197e-06
1.81728e-05
2.7898e-05
3.79482e-05
4.78508e-05
5.7279e-05
6.60197e-05
7.37831e-05
8.03514e-05
8.56803e-05
8.97104e-05
9.24667e-05
9.40378e-05
9.45775e-05
9.42974e-05
9.34512e-05
9.23198e-05
9.11606e-05
9.0188e-05
8.96006e-05
8.95499e-05
9.01139e-05
9.12712e-05
9.29413e-05
9.50115e-05
9.72889e-05
9.97984e-05
0.000101934
0.000102485
0.000103175
0.000106404
0.00010838
0.000109312
8.59871e-07
3.20243e-06
9.42336e-06
1.80002e-05
2.74625e-05
3.6965e-05
4.59835e-05
5.41644e-05
6.12443e-05
6.71255e-05
7.17523e-05
7.51687e-05
7.74867e-05
7.88769e-05
7.95545e-05
7.9766e-05
7.97414e-05
7.96826e-05
7.97809e-05
8.01979e-05
8.10418e-05
8.23329e-05
8.40332e-05
8.60657e-05
8.83329e-05
9.06706e-05
9.31084e-05
9.489e-05
9.56096e-05
9.63465e-05
9.89501e-05
0.000100017
0.000101367
0.000100943
0.000102672
8.7711e-07
3.12663e-06
9.23918e-06
1.76135e-05
2.66157e-05
3.53405e-05
4.32845e-05
5.01439e-05
5.57609e-05
6.01514e-05
6.34263e-05
6.5767e-05
6.74021e-05
6.85541e-05
6.94327e-05
7.0235e-05
7.11434e-05
7.22968e-05
7.37613e-05
7.55452e-05
7.76098e-05
7.98718e-05
8.22134e-05
8.45021e-05
8.68318e-05
8.84262e-05
8.92078e-05
9.01348e-05
9.25719e-05
9.30698e-05
9.37175e-05
9.39626e-05
9.33635e-05
9.35251e-05
9.44512e-05
8.97497e-07
3.08765e-06
9.12123e-06
1.72724e-05
2.57914e-05
3.37272e-05
4.06304e-05
4.63224e-05
5.08306e-05
5.43047e-05
5.69534e-05
5.90033e-05
6.06746e-05
6.2187e-05
6.37202e-05
6.53924e-05
6.72644e-05
6.93486e-05
7.16189e-05
7.40228e-05
7.64891e-05
7.88789e-05
8.09952e-05
8.22207e-05
8.30546e-05
8.40571e-05
8.63178e-05
8.65204e-05
8.73475e-05
8.63996e-05
8.53887e-05
8.67556e-05
9.01966e-05
9.76434e-05
0.000107649
9.21189e-07
3.13352e-06
9.281e-06
1.73609e-05
2.54384e-05
3.26435e-05
3.86574e-05
4.34948e-05
4.73119e-05
5.03347e-05
5.28175e-05
5.49966e-05
5.7061e-05
5.91389e-05
6.13035e-05
6.35778e-05
6.59448e-05
6.83557e-05
7.07429e-05
7.3038e-05
7.53492e-05
7.73256e-05
7.7476e-05
7.83253e-05
8.03144e-05
8.04076e-05
8.12939e-05
8.06245e-05
7.85637e-05
7.77585e-05
8.38936e-05
9.28418e-05
0.000104114
0.000117929
0.000133891
9.49709e-07
3.35915e-06
9.864e-06
1.79628e-05
2.56483e-05
3.222e-05
3.75456e-05
4.17926e-05
4.52386e-05
4.81541e-05
5.07641e-05
5.32325e-05
5.56621e-05
5.81011e-05
6.05544e-05
6.29945e-05
6.53667e-05
6.75743e-05
6.95047e-05
7.06875e-05
7.13302e-05
7.18194e-05
7.37036e-05
7.40483e-05
7.53316e-05
7.4506e-05
7.34874e-05
7.48427e-05
8.38117e-05
0.000102771
0.000119719
0.000131572
0.000143069
0.000158037
0.000172624
9.8779e-07
3.82917e-06
1.09017e-05
1.90486e-05
2.63435e-05
3.2338e-05
3.71303e-05
4.10371e-05
4.43479e-05
4.72929e-05
5.00295e-05
5.26491e-05
5.51895e-05
5.76493e-05
6.00004e-05
6.21953e-05
6.42355e-05
6.58417e-05
6.61414e-05
6.69379e-05
6.87582e-05
6.91687e-05
6.81355e-05
6.92339e-05
6.82603e-05
6.98517e-05
7.70509e-05
8.77388e-05
9.73665e-05
0.00010599
0.00011586
0.000128962
0.000144535
0.000162418
0.00018812
1.03556e-06
4.54319e-06
1.22284e-05
2.02904e-05
2.71423e-05
3.26434e-05
3.70794e-05
4.07816e-05
4.40049e-05
4.692e-05
4.9623e-05
5.21533e-05
5.45078e-05
5.66547e-05
5.85437e-05
5.99309e-05
6.05741e-05
6.12008e-05
6.26775e-05
6.29295e-05
6.36658e-05
6.25771e-05
6.24888e-05
6.41242e-05
7.12134e-05
8.42617e-05
0.000101465
0.000121464
0.000142933
0.000163614
0.000183127
0.000201619
0.000218754
0.000235063
0.000248753
1.08977e-06
5.37198e-06
1.34661e-05
2.12804e-05
2.77172e-05
3.28016e-05
3.69417e-05
4.04397e-05
4.3501e-05
4.62444e-05
4.87241e-05
5.09481e-05
5.28764e-05
5.44564e-05
5.52012e-05
5.61579e-05
5.78607e-05
5.83009e-05
5.74769e-05
5.77672e-05
5.66358e-05
5.7442e-05
6.45612e-05
7.78316e-05
9.31395e-05
0.000109695
0.0001253
0.000141309
0.000158879
0.000175529
0.000191519
0.000207426
0.000223764
0.000240539
0.000256905
1.13864e-06
6.14992e-06
1.44947e-05
2.19495e-05
2.78937e-05
3.25574e-05
3.63677e-05
3.95859e-05
4.23656e-05
4.47809e-05
4.68591e-05
4.8661e-05
4.95282e-05
5.05772e-05
5.22123e-05
5.27929e-05
5.31685e-05
5.21819e-05
5.21345e-05
5.39086e-05
6.26194e-05
8.01938e-05
9.86228e-05
0.000115982
0.000130581
0.000145682
0.000161257
0.000177044
0.000192201
0.000207261
0.00022267
0.000238274
0.000253889
0.000269094
0.000283696
1.1788e-06
6.94753e-06
1.53011e-05
2.22706e-05
2.76239e-05
3.18389e-05
3.52744e-05
3.81372e-05
4.05213e-05
4.24371e-05
4.36683e-05
4.47935e-05
4.64955e-05
4.76748e-05
4.78283e-05
4.72585e-05
4.69946e-05
4.79848e-05
5.37628e-05
6.51349e-05
7.86476e-05
9.29914e-05
0.000108212
0.000124541
0.000142487
0.000158999
0.000174822
0.000190392
0.000206244
0.00022242
0.000238809
0.000255122
0.000270983
0.000286407
0.000301764
1.21187e-06
7.64565e-06
1.5752e-05
2.21472e-05
2.69214e-05
3.06733e-05
3.37085e-05
3.61832e-05
3.81654e-05
3.93232e-05
4.08111e-05
4.21875e-05
4.23539e-05
4.25246e-05
4.25613e-05
4.39903e-05
4.9319e-05
6.14391e-05
7.64641e-05
9.14354e-05
0.000106121
0.000120927
0.000136041
0.000150802
0.000165743
0.000181156
0.000196975
0.000213113
0.000229239
0.000245415
0.000261384
0.000276824
0.000291789
0.000306865
0.000321696
1.235e-06
8.20089e-06
1.58469e-05
2.15703e-05
2.5775e-05
2.90424e-05
3.1616e-05
3.36082e-05
3.48443e-05
3.65408e-05
3.72311e-05
3.77771e-05
3.80508e-05
3.90378e-05
4.22172e-05
4.9668e-05
6.11532e-05
7.42857e-05
8.85987e-05
0.000104113
0.000119857
0.000135102
0.00015033
0.000166452
0.000182906
0.000199427
0.000215812
0.000231954
0.000247991
0.00026381
0.000279227
0.000294189
0.000309218
0.000324215
0.000338961
1.2442e-06
8.74524e-06
1.57878e-05
2.07241e-05
2.43732e-05
2.71494e-05
2.92282e-05
3.07077e-05
3.23776e-05
3.29039e-05
3.35799e-05
3.45594e-05
3.71242e-05
4.32464e-05
5.3986e-05
6.69155e-05
8.00617e-05
9.37574e-05
0.000108036
0.000122651
0.000138143
0.000154227
0.000170619
0.000186996
0.00020321
0.000219203
0.000234977
0.000250689
0.000266291
0.000281575
0.000296514
0.000311366
0.000326314
0.000341103
0.000355696
1.25663e-06
9.02635e-06
1.53279e-05
1.96067e-05
2.27253e-05
2.50066e-05
2.67426e-05
2.82555e-05
2.88363e-05
3.00686e-05
3.1886e-05
3.54629e-05
4.19079e-05
5.18491e-05
6.38046e-05
7.75285e-05
9.20369e-05
0.000106795
0.000122476
0.000138768
0.00015527
0.000171732
0.000188034
0.000204145
0.00022007
0.000235816
0.000251476
0.000267093
0.000282364
0.000297452
0.000312246
0.000327181
0.000341992
0.000356679
0.000371216
1.38879e-06
8.5915e-06
1.43151e-05
1.81641e-05
2.09149e-05
2.28753e-05
2.4338e-05
2.55858e-05
2.71884e-05
2.95746e-05
3.40016e-05
4.16736e-05
5.24033e-05
6.45099e-05
7.79833e-05
9.21746e-05
0.000107465
0.00012345
0.000139717
0.000156023
0.000172262
0.000188393
0.000204399
0.000220265
0.00023598
0.000251559
0.000267169
0.000282455
0.00029758
0.00031235
0.000327178
0.000342027
0.000356771
0.000371412
0.000385928
1.53904e-06
8.17996e-06
1.33541e-05
1.68032e-05
1.91529e-05
2.09795e-05
2.2617e-05
2.44385e-05
2.70228e-05
3.14818e-05
3.85617e-05
4.87977e-05
6.14355e-05
7.51073e-05
8.97429e-05
0.000105408
0.000121549
0.000137883
0.000154264
0.000170608
0.000186861
0.000202984
0.00021895
0.000234744
0.000250362
0.000265973
0.000281336
0.000296484
0.000311445
0.000326215
0.000341113
0.000355921
0.000370644
0.00038528
0.000399807
1.70316e-06
7.8428e-06
1.25834e-05
1.5783e-05
1.8016e-05
1.98285e-05
2.1742e-05
2.42631e-05
2.86906e-05
3.59916e-05
4.63331e-05
5.85559e-05
7.19687e-05
8.68482e-05
0.000102599
0.000118799
0.000135208
0.000151676
0.000168104
0.000184428
0.000200609
0.000216626
0.000232471
0.000248144
0.000263745
0.000279212
0.000294431
0.000309526
0.000324323
0.00033921
0.000354122
0.000368951
0.000383701
0.000398368
0.000412931
1.86797e-06
7.55377e-06
1.18219e-05
1.46138e-05
1.67429e-05
1.88949e-05
2.12503e-05
2.52583e-05
3.17638e-05
4.13942e-05
5.34795e-05
6.68644e-05
8.1904e-05
9.78008e-05
0.000114156
0.000130721
0.00014734
0.000163912
0.000180376
0.000196696
0.000212854
0.00022884
0.000244652
0.000260313
0.000275945
0.000291283
0.000306487
0.000321499
0.000336386
0.000351397
0.000366332
0.000381198
0.000395995
0.000410712
0.000425325
1.19057e-06
8.44097e-06
2.26433e-05
4.02526e-05
5.97124e-05
8.03749e-05
0.000101884
0.000124017
0.00014661
0.000169525
0.000192638
0.000215828
0.000238986
0.000262005
0.000284781
0.00030721
0.000329185
0.000350598
0.000371339
0.000391297
0.000410361
0.000428422
0.000445372
0.000461113
0.000475555
0.00048862
0.000500205
0.000510353
0.000519003
0.000526161
0.000531856
0.000536145
0.000539102
0.000540831
0.000541452
1.19076e-06
9.10811e-06
2.40181e-05
4.21939e-05
6.21321e-05
8.32139e-05
0.000105097
0.00012755
0.000150411
0.000173553
0.00019686
0.000220223
0.000243539
0.000266703
0.000289614
0.000312169
0.000334269
0.000355812
0.000376694
0.000396811
0.000416058
0.000434331
0.00045153
0.000467562
0.00048234
0.000495792
0.000507844
0.000518433
0.000527635
0.000535397
0.000541748
0.000546743
0.000550453
0.000552977
0.000554428
1.18867e-06
9.79915e-06
2.53815e-05
4.40502e-05
6.43797e-05
8.57897e-05
0.000107955
0.000130658
0.000153733
0.000177043
0.000200479
0.00022394
0.000247333
0.000270563
0.000293535
0.000316158
0.000338333
0.000359964
0.000380951
0.000401192
0.000420588
0.000439039
0.000456449
0.000472728
0.000487794
0.000501577
0.000514019
0.000525039
0.000534683
0.000542966
0.000549885
0.000555493
0.000559861
0.000563085
0.000565277
1.18493e-06
1.05061e-05
2.67126e-05
4.57992e-05
6.64239e-05
8.80529e-05
0.00011039
0.00013323
0.000156418
0.000179827
0.000203347
0.000226876
0.000250319
0.000273589
0.000296598
0.000319258
0.000341476
0.000363162
0.00038422
0.000404552
0.000424063
0.000442656
0.000460238
0.000476722
0.000492027
0.000506085
0.000518842
0.000530238
0.000540227
0.00054894
0.000556324
0.000562429
0.000567323
0.0005711
0.000573878
1.17901e-06
1.12224e-05
2.79826e-05
4.73848e-05
6.81922e-05
8.99218e-05
0.000112306
0.000135162
0.00015835
0.000181752
0.000205264
0.00022879
0.000252238
0.000275522
0.000298552
0.000321243
0.000343503
0.000365242
0.000386366
0.000406783
0.000426397
0.000445114
0.000462843
0.000479497
0.000494998
0.000509279
0.000522284
0.000533974
0.000544257
0.000553278
0.000561019
0.000567505
0.000572802
0.000577004
0.000580215
1.17365e-06
1.18433e-05
2.89814e-05
4.85171e-05
6.93424e-05
9.10351e-05
0.000113358
0.000136145
0.000159265
0.000182605
0.000206067
0.000229555
0.00025298
0.000276255
0.000299291
0.000322002
0.000344298
0.000366088
0.000387278
0.000407776
0.000427487
0.000446318
0.000464177
0.00048098
0.000496648
0.000511112
0.000524317
0.000536224
0.000546739
0.00055598
0.000563969
0.000570707
0.000576259
0.000580716
0.00058418
1.17774e-06
1.15109e-05
2.84371e-05
4.78882e-05
6.86888e-05
9.03854e-05
0.000112725
0.000135535
0.000158681
0.000182048
0.000205535
0.000229049
0.000252502
0.000275807
0.00029888
0.000321632
0.000343976
0.000365821
0.000387077
0.000407648
0.000427442
0.000446365
0.000464326
0.000481239
0.000497026
0.000511616
0.000524955
0.000537001
0.00054765
0.000557024
0.000565152
0.000572018
0.000577683
0.000582229
0.000585755
1.18226e-06
1.07809e-05
2.7174e-05
4.63414e-05
6.69909e-05
8.86131e-05
0.000110925
0.000133733
0.00015689
0.000180275
0.000203785
0.000227328
0.000250816
0.000274162
0.00029728
0.000320084
0.000342485
0.000364393
0.000385714
0.000406356
0.000426224
0.000445225
0.000463266
0.00048026
0.000496125
0.000510789
0.000524194
0.000536287
0.000546961
0.000556374
0.000564502
0.000571345
0.00057696
0.000581426
0.000584835
1.18582e-06
1.00657e-05
2.58434e-05
4.46053e-05
6.49736e-05
8.63934e-05
0.000108555
0.000131251
0.000154324
0.000177656
0.00020114
0.00022468
0.000248182
0.000271554
0.000294705
0.000317547
0.000339989
0.000361939
0.000383305
0.000403991
0.000423901
0.00044294
0.000461013
0.000478031
0.000493908
0.000508571
0.000521956
0.000533988
0.000544598
0.000553946
0.00056194
0.000568614
0.000574021
0.000578236
0.000581348
1.18734e-06
9.37536e-06
2.44983e-05
4.27861e-05
6.27855e-05
8.39033e-05
0.000105813
0.000128297
0.000151208
0.000174419
0.000197817
0.000221294
0.000244751
0.000268093
0.000291229
0.000314066
0.00033651
0.000358469
0.000379844
0.000400537
0.00042045
0.000439484
0.00045754
0.000474525
0.000490351
0.000504938
0.000518219
0.000530084
0.000540555
0.000549688
0.000557419
0.000563779
0.000568819
0.000572611
0.000575241
1.18739e-06
8.71497e-06
2.31587e-05
4.09169e-05
6.04765e-05
8.12146e-05
0.000102789
0.000124998
0.00014768
0.0001707
0.000193933
0.000217273
0.000240617
0.000263869
0.000286933
0.000309712
0.00033211
0.000354027
0.000375364
0.000396016
0.000415881
0.000434855
0.000452835
0.000469721
0.000485422
0.000499851
0.000512927
0.00052452
0.000534745
0.000543533
0.000550859
0.000556754
0.000561264
0.00056446
0.000566426
1.18547e-06
8.08632e-06
2.18382e-05
3.90228e-05
5.80862e-05
7.8378e-05
9.95659e-05
0.000121434
0.000143816
0.000166564
0.000189559
0.00021269
0.000235855
0.000258951
0.00028188
0.000304541
0.000326832
0.00034865
0.000369889
0.00039044
0.000410194
0.000429041
0.000446872
0.000463582
0.00047907
0.000493245
0.000505986
0.000517256
0.000527084
0.000535386
0.000542159
0.000547429
0.00055124
0.000553664
0.000554783
1.17996e-06
7.51177e-06
2.05956e-05
3.71821e-05
5.56982e-05
7.54856e-05
9.622e-05
0.000117679
0.000139679
0.00016208
0.000184762
0.000207612
0.000230524
0.000253394
0.000276118
0.000298592
0.000320709
0.000342359
0.000363431
0.00038381
0.00040338
0.000422022
0.000439622
0.000456065
0.000471244
0.000485054
0.000497345
0.000508177
0.000517452
0.000525124
0.000531187
0.000535665
0.000538601
0.000540067
0.000540152
1.17265e-06
6.94249e-06
1.92898e-05
3.52547e-05
5.31987e-05
7.24665e-05
9.27138e-05
0.000113702
0.000135262
0.000157255
0.000179559
0.00020206
0.000224651
0.000247225
0.000269674
0.000291889
0.000313758
0.000335165
0.000355993
0.000376119
0.000395419
0.000413767
0.000431038
0.00044711
0.000461867
0.000475163
0.000486942
0.000497163
0.000505729
0.000512607
0.000517786
0.000521288
0.000523158
0.000523472
0.000522324
1.15819e-06
6.40636e-06
1.79902e-05
3.32518e-05
5.05956e-05
6.93007e-05
8.90122e-05
0.000109489
0.000130563
0.000152095
0.000173963
0.000196054
0.000218258
0.000240466
0.000262567
0.000284447
0.000305989
0.000327071
0.000347568
0.000367349
0.000386282
0.000404233
0.000421065
0.000436649
0.000450843
0.000463511
0.000474628
0.000484063
0.000491752
0.000497655
0.000501757
0.000504082
0.000504676
0.000503623
0.000501038
1.14246e-06
5.91561e-06
1.67487e-05
3.12752e-05
4.7984e-05
6.60857e-05
8.52092e-05
0.00010512
0.000125649
0.000146659
0.000168027
0.000189639
0.000211385
0.000233152
0.000254825
0.000276287
0.000297414
0.000318078
0.000338146
0.000357479
0.000375934
0.000393368
0.000409634
0.000424591
0.000438062
0.000449986
0.000460237
0.000468708
0.000475328
0.000480053
0.000482867
0.000483792
0.000482871
0.000480182
0.000476034
1.1233e-06
5.47308e-06
1.55784e-05
2.93482e-05
4.53676e-05
6.28325e-05
8.13305e-05
0.00010063
0.000120564
0.000140994
0.000161799
0.000182864
0.000204077
0.000225322
0.000246483
0.000267435
0.00028805
0.000308192
0.000327719
0.000346483
0.000364332
0.00038111
0.000396661
0.000410809
0.00042343
0.000434403
0.000443589
0.000450888
0.000456224
0.000459553
0.000460867
0.000460204
0.000457601
0.000453443
0.000447762
1.10069e-06
5.06176e-06
1.44741e-05
2.74748e-05
4.27597e-05
5.95633e-05
7.74064e-05
9.60578e-05
0.00011535
0.000135148
0.000155329
0.000175779
0.000196384
0.000217025
0.000237581
0.000257924
0.000277917
0.000297418
0.000316276
0.000334333
0.000351425
0.000367384
0.000382031
0.000395206
0.000406769
0.000416561
0.000424452
0.000430335
0.000434135
0.000435813
0.000435337
0.000432998
0.000428975
0.000423104
0.000415377
1.07392e-06
4.69978e-06
1.34765e-05
2.57278e-05
4.02443e-05
5.63477e-05
7.35033e-05
9.14697e-05
0.000110078
0.000129192
0.000148689
0.000168455
0.000188372
0.00020832
0.000228173
0.000247796
0.000267048
0.000285774
0.000303815
0.000321001
0.000337157
0.000352098
0.000365642
0.000377627
0.000387876
0.000396233
0.000402564
0.000406764
0.000408734
0.000408683
0.000406724
0.000402697
0.000396546
0.000388399
0.000378525
1.04604e-06
4.39443e-06
1.26094e-05
2.41733e-05
3.79579e-05
5.33342e-05
6.97658e-05
8.69997e-05
0.00010487
0.000123239
0.000141986
0.000160991
0.000180135
0.000199294
0.000218334
0.000237115
0.000255485
0.000273281
0.000290331
0.000306454
0.00032146
0.000335156
0.000347354
0.000357868
0.000366527
0.000373168
0.000377628
0.000380052
0.000380481
0.000378691
0.000374568
0.00036815
0.000359653
0.000349333
0.000337623
1.01664e-06
4.12888e-06
1.18393e-05
2.27603e-05
3.58282e-05
5.04594e-05
6.61695e-05
8.266e-05
9.97662e-05
0.000117352
0.000135295
0.000153472
0.000171761
0.000190031
0.000208143
0.000225946
0.000243278
0.000259965
0.000275822
0.000290652
0.000304255
0.000316425
0.000326959
0.000335642
0.000342452
0.000347302
0.000350193
0.000350815
0.000349001
0.000344714
0.000338084
0.000329296
0.000318708
0.000306675
0.000293566
9.85877e-07
3.90236e-06
1.11689e-05
2.14994e-05
3.38929e-05
4.78041e-05
6.27894e-05
7.85261e-05
9.48473e-05
0.000111616
0.000128706
0.000145991
0.000163343
0.000180623
0.000197682
0.000214358
0.000230476
0.00024585
0.000260281
0.00027356
0.000285479
0.000295812
0.000304515
0.000311493
0.000316544
0.00031943
0.000319923
0.000317939
0.000313509
0.000306721
0.000297826
0.000287102
0.000274848
0.000261656
0.000248239
9.54739e-07
3.71747e-06
1.06102e-05
2.04166e-05
3.21972e-05
4.54318e-05
5.97057e-05
7.46917e-05
9.02179e-05
0.000106144
0.000122338
0.000138668
0.000154995
0.000171171
0.000187033
0.000202409
0.000217108
0.00023093
0.000243656
0.000255083
0.000265132
0.000273705
0.000280566
0.000285415
0.000287981
0.000288176
0.000285954
0.000281423
0.000274633
0.000265779
0.000255117
0.000243128
0.000230391
0.00021753
0.000205255
9.24784e-07
3.5701e-06
1.01601e-05
1.95314e-05
3.0778e-05
4.33997e-05
5.69989e-05
7.1252e-05
8.59831e-05
0.000101046
0.000116301
0.000131604
0.000146806
0.000161744
0.00017624
0.000190106
0.00020314
0.000215121
0.000225985
0.000235619
0.000243753
0.000250083
0.000254316
0.000256345
0.000256183
0.000253761
0.000249106
0.000242262
0.000233583
0.000223468
0.000212381
0.000200832
0.00018939
0.000178647
0.000169156
8.96713e-07
3.45301e-06
9.81487e-06
1.8846e-05
2.96491e-05
4.17375e-05
5.47168e-05
6.82696e-05
8.22144e-05
9.63948e-05
0.000110658
0.000124848
0.000138798
0.000152329
0.00016525
0.000177345
0.00018855
0.000198734
0.000207637
0.000214945
0.00022038
0.00022392
0.000225394
0.000224726
0.000221806
0.000216818
0.000210056
0.000201895
0.000192743
0.000183087
0.000173441
0.000164301
0.000156089
0.000149108
0.000143504
8.74915e-07
3.3913e-06
9.661e-06
1.85029e-05
2.899e-05
4.06306e-05
5.30249e-05
6.58808e-05
7.90123e-05
9.2249e-05
0.000105422
0.000118356
0.000130867
0.000142761
0.000153927
0.000164268
0.000173553
0.00018147
0.000187753
0.000192334
0.000195039
0.000195646
0.000194176
0.000190785
0.000185726
0.000179318
0.000171952
0.000164095
0.00015625
0.000148901
0.000142452
0.000137204
0.000133319
0.000130734
0.000128923
0.000442798
0.000430517
0.000417531
0.000403827
0.000389348
0.000374118
0.000357821
0.000340939
0.000322011
0.000303893
0.000279119
0.000268169
0.000225347
0.000201299
0.000162217
0.000133238
0.000108333
9.56469e-05
0.000105849
0.000112742
0.00011739
0.000118702
0.000462367
0.000450358
0.000437657
0.000424263
0.000410136
0.000395297
0.000379542
0.000363107
0.000345216
0.000327418
0.000304565
0.000290193
0.000260316
0.000235486
0.000197619
0.000168166
0.000135438
0.000110861
9.80771e-05
0.000112184
0.000118442
0.000120951
0.000482078
0.000470436
0.0004581
0.000445077
0.00043135
0.000416927
0.000401708
0.000385748
0.000368711
0.000351432
0.000330507
0.000313544
0.000290084
0.00026806
0.00023496
0.000204279
0.0001726
0.000142779
0.000108574
0.000102573
0.000113321
0.000120485
0.000501589
0.000490453
0.000478606
0.000466061
0.000452818
0.000438879
0.000424216
0.000408798
0.000392497
0.000375783
0.000356664
0.000338613
0.000317518
0.000297974
0.000271342
0.00024085
0.000210354
0.000183498
0.000142063
0.000113785
0.000106554
0.000119051
0.00052038
0.000509943
0.000498765
0.00048686
0.00047424
0.000460907
0.00044687
0.000432088
0.000416508
0.000400385
0.000382768
0.000364894
0.000344765
0.000326119
0.000304802
0.000277721
0.000247518
0.000221789
0.000186864
0.000150612
0.000119545
0.00010909
0.000537662
0.000528181
0.000517919
0.000506893
0.000495109
0.000482576
0.000469314
0.000455306
0.000440529
0.000425094
0.000408679
0.000391655
0.000372502
0.000353976
0.00033555
0.00031293
0.000285022
0.000258115
0.00022968
0.000198872
0.000156346
0.000118603
0.000552225
0.000544013
0.000535012
0.0005252
0.000514586
0.000503152
0.000490921
0.000477908
0.000464114
0.000449563
0.000434224
0.000418288
0.00040045
0.000382217
0.000364953
0.000345717
0.000321621
0.000295344
0.000268138
0.000245
0.000205688
0.000148663
0.000562087
0.000555617
0.000548315
0.000540223
0.00053125
0.00052137
0.000510579
0.000498917
0.00048641
0.000473061
0.00045892
0.0004442
0.000427939
0.000410578
0.000393914
0.000376698
0.000356152
0.000332708
0.000305921
0.000284535
0.00025502
0.0001966
0.000564798
0.000560554
0.000555575
0.000549715
0.000542973
0.000535298
0.000526461
0.000516644
0.000505924
0.00049424
0.000481682
0.000468438
0.000453983
0.000438116
0.000422288
0.000406406
0.000388528
0.000368447
0.000344087
0.000321656
0.000299111
0.000250652
0.00056141
0.000559617
0.000556986
0.000553556
0.000549235
0.000544015
0.000537699
0.000530296
0.000521812
0.000512259
0.000501671
0.000490245
0.000477761
0.000463863
0.000449353
0.000434743
0.00041892
0.000401625
0.000381125
0.000358312
0.000341133
0.000300225
0.000554275
0.000554728
0.000554407
0.000553249
0.000551234
0.000548292
0.000544375
0.000539385
0.000533325
0.000526142
0.000517855
0.000508576
0.000498281
0.000486668
0.000474064
0.000460988
0.00044709
0.000431977
0.000415379
0.000393742
0.000381104
0.00034437
0.000543596
0.000545836
0.000547493
0.000548463
0.000548628
0.000547923
0.000546291
0.000543681
0.000540013
0.000535286
0.000529434
0.000522536
0.000514595
0.000505453
0.000495222
0.000484112
0.000472261
0.000459186
0.000445846
0.000426634
0.000417371
0.000384281
0.000530279
0.000533333
0.000536212
0.000538739
0.000540796
0.000542199
0.000542813
0.000542544
0.000541322
0.000539079
0.000535779
0.000531388
0.000525964
0.000519357
0.000511748
0.000502997
0.000493413
0.000482526
0.000471848
0.000455774
0.000448835
0.000419792
0.000512508
0.000516845
0.000520985
0.000524871
0.000528023
0.000530835
0.000533289
0.000535199
0.000536377
0.000536683
0.000536031
0.000534348
0.000531603
0.000527678
0.000522804
0.000516662
0.00050954
0.000501056
0.000492737
0.000479906
0.000475295
0.000449992
0.000485176
0.000490664
0.000496017
0.000501468
0.000506504
0.000511569
0.00051616
0.00052081
0.000524191
0.000526924
0.000528883
0.000529957
0.000530085
0.000528937
0.000527176
0.000524029
0.000519731
0.000513937
0.000507973
0.000498212
0.000495976
0.000474253
0.000453107
0.000458697
0.000464373
0.000470204
0.000476033
0.000482201
0.000488469
0.000494654
0.000500649
0.0005061
0.000511533
0.000516089
0.000519588
0.000522103
0.00052482
0.000525054
0.000523693
0.000520958
0.000517615
0.000510867
0.000510803
0.000492658
0.000421277
0.000426123
0.000431333
0.000436818
0.000442372
0.000448664
0.000454979
0.000461445
0.000467824
0.000475217
0.000482593
0.000488809
0.000494626
0.000501226
0.000506747
0.000510861
0.000514444
0.000516463
0.000517072
0.000514456
0.000517623
0.000505021
0.000393198
0.000397387
0.000401291
0.000405872
0.000410829
0.00041612
0.000421816
0.000427668
0.000434157
0.000440799
0.000447923
0.00045453
0.000462458
0.000469852
0.000476909
0.000484034
0.000491062
0.000496358
0.000500766
0.000503363
0.000510288
0.00050469
0.000371115
0.000373772
0.000377322
0.000380858
0.00038476
0.000388352
0.000392565
0.000397413
0.000402619
0.000408027
0.000414125
0.000421339
0.000427755
0.000434166
0.000441862
0.000449624
0.000456892
0.000463762
0.000471251
0.000476975
0.000486142
0.000487335
0.000354316
0.000355787
0.000358121
0.000360533
0.000363144
0.000366387
0.000369412
0.000372804
0.000376799
0.000381249
0.000385504
0.000390292
0.000396025
0.000402039
0.000408418
0.000414758
0.000421289
0.000428231
0.000435532
0.000441839
0.000451
0.000456337
0.000344781
0.000346452
0.000347882
0.00034972
0.000351171
0.000352955
0.000354711
0.000356796
0.000359439
0.000361683
0.00036445
0.000368097
0.000371895
0.000376271
0.000380069
0.000384506
0.000389877
0.000395306
0.000401075
0.000406567
0.000414569
0.0004208
0.000337314
0.000337325
0.00033827
0.000339207
0.000340727
0.000342086
0.000343421
0.000345085
0.000346702
0.000348529
0.00035068
0.000352894
0.000355442
0.000358081
0.000360775
0.000363958
0.000367426
0.000370876
0.000375054
0.000379285
0.00038465
0.000389868
0.000328965
0.000329431
0.000329624
0.000330213
0.000330689
0.000331573
0.000332579
0.00033409
0.000335596
0.00033698
0.000338451
0.00034028
0.000342134
0.000344006
0.000346053
0.000348362
0.000350836
0.000353387
0.000356123
0.000358693
0.000362371
0.00036619
0.000320942
0.000321541
0.000322049
0.000322785
0.000323389
0.000324
0.000324814
0.000325843
0.000326785
0.000327623
0.000328721
0.000330076
0.000331103
0.000332441
0.000334271
0.00033581
0.000337521
0.000339321
0.00034126
0.000343196
0.000345628
0.000348227
0.000316252
0.000316939
0.000317443
0.000317614
0.000317677
0.000318006
0.000318039
0.000318395
0.000318982
0.000319998
0.00032064
0.000321429
0.000322618
0.000323754
0.000324637
0.00032573
0.000327132
0.000328318
0.000329784
0.000331284
0.000332901
0.000334692
0.000311111
0.000311307
0.000311584
0.000311984
0.000311594
0.000312951
0.000313045
0.000313295
0.000313876
0.000314357
0.000314754
0.000315305
0.000316016
0.00031645
0.000317115
0.000317989
0.000318698
0.000319566
0.000320723
0.000321609
0.000322833
0.000324284
0.000304826
0.000304915
0.000305062
0.000305284
0.000305734
0.000306229
0.000306904
0.000307414
0.000307817
0.000308242
0.00030871
0.000308978
0.000309407
0.000309983
0.000310386
0.000310955
0.000311723
0.000312382
0.000313211
0.000314103
0.000315019
0.000316052
0.000300408
0.000300465
0.000300648
0.000300901
0.000301133
0.000301431
0.000301735
0.000301947
0.000302253
0.000302502
0.000302784
0.000303183
0.000303637
0.000304236
0.000304675
0.000304953
0.000305383
0.000306
0.00030654
0.000307123
0.000307916
0.000308761
0.000297314
0.000297525
0.000297727
0.000297786
0.00029789
0.000298194
0.000298249
0.000298248
0.000298408
0.000298594
0.000298828
0.000298973
0.000299179
0.000299391
0.000299631
0.000299848
0.000300268
0.000300581
0.000300982
0.000301447
0.000301934
0.00030258
0.00029397
0.000294043
0.000294026
0.000294206
0.000294235
0.000294443
0.000294647
0.000294841
0.00029478
0.00029505
0.000295206
0.000295155
0.000295175
0.00029529
0.000295424
0.000295632
0.000295845
0.000296043
0.000296229
0.000296535
0.000296736
0.000297135
0.000291511
0.000291387
0.000291618
0.000291778
0.000292107
0.000292189
0.000292239
0.000292389
0.000292488
0.000292557
0.000292525
0.000292508
0.000292609
0.000292709
0.000292773
0.000292642
0.000292899
0.000293098
0.000292974
0.000292775
0.000293203
0.00029347
0.000289458
0.000289557
0.000289696
0.000289763
0.000290004
0.000290023
0.000290184
0.000290332
0.000290463
0.000290548
0.000290594
0.00029079
0.000290813
0.000290735
0.000290566
0.000290628
0.000290569
0.000290449
0.000290506
0.000290456
0.000290658
0.000290632
0.000288429
0.000288601
0.000288693
0.000288789
0.000288898
0.000288971
0.000289037
0.000289097
0.000289153
0.000289157
0.000289168
0.000289226
0.000289187
0.000289171
0.000289183
0.000289138
0.000289108
0.000289108
0.000289074
0.000289047
0.000289047
0.000289045
0.000286636
0.000286662
0.000286744
0.000286824
0.00028687
0.00028694
0.000287047
0.000287103
0.000287182
0.0002873
0.000287377
0.000287487
0.000287617
0.000287701
0.000287787
0.000287852
0.000287909
0.000287978
0.000288004
0.000288028
0.000288076
0.000288075
0.000286194
0.000286194
0.000286213
0.000286264
0.000286276
0.000286307
0.000286367
0.000286386
0.00028641
0.000286466
0.000286509
0.000286536
0.000286536
0.000286571
0.000286599
0.000286607
0.000286623
0.000286657
0.000286662
0.000286675
0.000286711