/*--------------------------------*- C++ -*----------------------------------*\
| =========                 |                                                 |
| \\      /  F ield         | OpenFOAM: The Open Source CFD Toolbox           |
|  \\    /   O peration     | Version:  v2012                                 |
|   \\  /    A nd           | Website:  www.openfoam.com                      |
|    \\/     M anipulation  |                                                 |
\*---------------------------------------------------------------------------*/
FoamFile
{
    version     2.0;
    format      ascii;
    class       volScalarField;
    location    "1";
    object      p;
}
// * * * * * * * * * * * * * * * * * * * * * * * * * * * * * * * * * * * * * //

dimensions      [0 2 -2 0 0 0 0];


internalField   nonuniform List<scalar> 
76776
(
-0.0700969
-0.07009
-0.0700741
-0.0700502
-0.0700218
-0.069991
-0.0699586
-0.0699249
-0.0698901
-0.0698542
-0.0698175
-0.0697796
-0.0697406
-0.0697001
-0.0696579
-0.0696134
-0.0695662
-0.0695158
-0.0694618
-0.0694039
-0.0693418
-0.0692756
-0.0692056
-0.0691325
-0.0690577
-0.0689829
-0.0689107
-0.0688449
-0.0687905
-0.0687527
-0.0687371
-0.0687479
-0.0687981
-0.0690053
-0.0697018
-0.0701841
-0.0701791
-0.0701663
-0.0701463
-0.0701217
-0.070094
-0.070064
-0.0700318
-0.0699976
-0.0699612
-0.0699225
-0.0698813
-0.0698371
-0.0697894
-0.0697378
-0.0696816
-0.0696204
-0.0695537
-0.0694814
-0.0694032
-0.0693194
-0.0692303
-0.0691367
-0.0690401
-0.0689423
-0.0688459
-0.0687539
-0.0686669
-0.0685857
-0.0685123
-0.0684528
-0.0684062
-0.0683929
-0.0685406
-0.0691815
-0.0702882
-0.0702857
-0.0702791
-0.0702652
-0.0702457
-0.0702224
-0.0701959
-0.0701661
-0.070133
-0.0700963
-0.0700556
-0.0700105
-0.0699602
-0.0699042
-0.0698422
-0.0697741
-0.0696996
-0.0696186
-0.0695307
-0.0694364
-0.0693361
-0.0692312
-0.0691231
-0.0690145
-0.0689068
-0.0687997
-0.0686927
-0.0685871
-0.0684803
-0.0683771
-0.0682733
-0.0681931
-0.0681342
-0.0681329
-0.0687045
-0.0704294
-0.0704277
-0.0704235
-0.0704155
-0.0704027
-0.0703848
-0.070362
-0.0703346
-0.070302
-0.070264
-0.0702201
-0.07017
-0.0701134
-0.0700504
-0.0699807
-0.0699038
-0.0698193
-0.0697272
-0.0696282
-0.0695233
-0.0694138
-0.0693016
-0.069187
-0.0690688
-0.0689465
-0.068819
-0.0686851
-0.0685479
-0.0684062
-0.0682591
-0.0681379
-0.0680009
-0.0678692
-0.0677108
-0.0681816
-0.0706238
-0.0706234
-0.0706216
-0.070617
-0.070608
-0.0705933
-0.0705725
-0.0705452
-0.0705115
-0.070471
-0.070424
-0.0703706
-0.0703102
-0.0702418
-0.0701653
-0.0700809
-0.0699893
-0.069891
-0.069787
-0.0696779
-0.0695638
-0.0694428
-0.0693143
-0.0691761
-0.0690287
-0.0688757
-0.0687066
-0.0685295
-0.0683666
-0.0681998
-0.0680009
-0.0678132
-0.0676258
-0.0673362
-0.0675996
-0.0708858
-0.0708855
-0.0708843
-0.0708803
-0.0708714
-0.0708555
-0.0708323
-0.070803
-0.0707675
-0.070725
-0.0706747
-0.0706161
-0.0705496
-0.0704756
-0.0703943
-0.0703061
-0.0702109
-0.0701091
-0.0700001
-0.0698819
-0.0697535
-0.0696139
-0.0694624
-0.0693031
-0.0691248
-0.0689341
-0.0687562
-0.0685593
-0.0683365
-0.0681267
-0.0678788
-0.0675852
-0.0673671
-0.0671134
-0.0671079
-0.0712184
-0.071217
-0.0712138
-0.0712076
-0.0711949
-0.0711745
-0.071148
-0.0711143
-0.0710724
-0.0710226
-0.0709654
-0.0709011
-0.0708299
-0.0707517
-0.0706661
-0.070573
-0.0704717
-0.0703599
-0.0702369
-0.0701007
-0.0699524
-0.0697911
-0.0696107
-0.0694177
-0.0692337
-0.0690276
-0.0687874
-0.0685607
-0.0683144
-0.0680372
-0.0677804
-0.0675206
-0.0672137
-0.0668568
-0.0667113
-0.0716252
-0.0716214
-0.0716122
-0.071598
-0.0715805
-0.0715541
-0.0715165
-0.0714717
-0.0714204
-0.0713627
-0.0712984
-0.0712274
-0.0711491
-0.0710634
-0.0709692
-0.0708645
-0.070748
-0.0706177
-0.0704737
-0.0703142
-0.0701389
-0.0699538
-0.0697642
-0.0695506
-0.0693032
-0.0690713
-0.0688226
-0.0685367
-0.068264
-0.0679748
-0.0676632
-0.0673793
-0.0671379
-0.0668572
-0.0666297
-0.0721187
-0.0721098
-0.0720915
-0.0720666
-0.0720331
-0.07199
-0.07194
-0.0718842
-0.0718224
-0.0717544
-0.0716797
-0.0715978
-0.0715079
-0.0714083
-0.0712975
-0.0711745
-0.0710379
-0.070886
-0.0707134
-0.070529
-0.0703408
-0.0701304
-0.0698924
-0.0696628
-0.0694141
-0.0691394
-0.0688937
-0.0686366
-0.0683217
-0.068008
-0.0677485
-0.0675229
-0.0672675
-0.0669593
-0.0666951
-0.0727046
-0.0726935
-0.0726666
-0.0726235
-0.0725703
-0.0725114
-0.0724472
-0.0723774
-0.0723014
-0.0722187
-0.0721286
-0.0720296
-0.0719203
-0.0717994
-0.0716658
-0.0715168
-0.071352
-0.071178
-0.0710016
-0.0708023
-0.0705793
-0.070359
-0.0701321
-0.0698957
-0.0696707
-0.069413
-0.0690834
-0.0687424
-0.0684812
-0.0682835
-0.0680798
-0.0678342
-0.0675469
-0.0672236
-0.0669186
-0.0734319
-0.0734122
-0.0733703
-0.0733115
-0.0732408
-0.0731638
-0.0730814
-0.0729929
-0.0728976
-0.0727942
-0.0726812
-0.0725576
-0.0724217
-0.072274
-0.07211
-0.0719343
-0.0717563
-0.0715632
-0.0713484
-0.0711455
-0.0709407
-0.0707144
-0.0704941
-0.0702605
-0.0699779
-0.0696885
-0.0694437
-0.0692146
-0.068978
-0.0687384
-0.0684821
-0.0681926
-0.0678663
-0.0675062
-0.0671598
-0.0743602
-0.0743345
-0.0742736
-0.074192
-0.0741
-0.0740016
-0.0738968
-0.0737844
-0.0736628
-0.0735308
-0.0733876
-0.0732328
-0.0730634
-0.0728818
-0.0727012
-0.0725056
-0.07229
-0.0720841
-0.071888
-0.0716854
-0.0714823
-0.0712607
-0.0710002
-0.0707294
-0.0704909
-0.0702773
-0.0700577
-0.0698201
-0.069562
-0.0692837
-0.0689816
-0.0686483
-0.0682803
-0.0678807
-0.0674874
-0.0755518
-0.0755183
-0.0754422
-0.0753368
-0.0752197
-0.0750957
-0.0749635
-0.0748208
-0.0746666
-0.0744987
-0.0743173
-0.0741272
-0.0739347
-0.0737297
-0.0734993
-0.0732844
-0.0730886
-0.0728847
-0.0726917
-0.0724992
-0.0722686
-0.0720186
-0.0717949
-0.0715883
-0.0713722
-0.0711374
-0.0708832
-0.0706082
-0.0703099
-0.0699853
-0.0696303
-0.0692422
-0.06882
-0.0683668
-0.0679144
-0.077107
-0.0770541
-0.076953
-0.076821
-0.0766766
-0.0765234
-0.076359
-0.0761814
-0.0759908
-0.075788
-0.0755761
-0.0753571
-0.0751201
-0.0748907
-0.0746892
-0.0744851
-0.0742868
-0.0740851
-0.0738412
-0.0735808
-0.0733602
-0.0731765
-0.072984
-0.0727608
-0.0725076
-0.0722301
-0.0719283
-0.0715993
-0.071241
-0.0708522
-0.0704319
-0.0699792
-0.069493
-0.0689756
-0.0684546
-0.0791153
-0.0790365
-0.078905
-0.0787417
-0.0785658
-0.078379
-0.0781791
-0.0779641
-0.0777356
-0.077503
-0.0772605
-0.0770087
-0.0767752
-0.0765512
-0.0763363
-0.0761325
-0.0759056
-0.0756561
-0.0754193
-0.0751993
-0.0749724
-0.0747282
-0.0744663
-0.0741855
-0.0738803
-0.0735455
-0.0731795
-0.0727824
-0.0723542
-0.0718933
-0.0713985
-0.0708693
-0.0703047
-0.0697079
-0.0691051
-0.0816458
-0.0815509
-0.0813881
-0.0811913
-0.080982
-0.0807604
-0.0805237
-0.0802752
-0.0800156
-0.079744
-0.0794841
-0.0792448
-0.0790057
-0.0787685
-0.078517
-0.0782416
-0.0779717
-0.0777236
-0.0774762
-0.0772095
-0.0769216
-0.0766127
-0.0762787
-0.0759165
-0.0755261
-0.0751069
-0.0746567
-0.0741732
-0.0736555
-0.0731037
-0.072518
-0.0718976
-0.0712412
-0.0705525
-0.0698556
-0.0848109
-0.0846977
-0.0844998
-0.0842687
-0.0840266
-0.0837699
-0.0834999
-0.0832151
-0.0829239
-0.0826439
-0.0823696
-0.0820981
-0.0818275
-0.0815385
-0.0812324
-0.0809233
-0.080612
-0.0802894
-0.0799529
-0.0795993
-0.0792214
-0.0788162
-0.0783836
-0.0779219
-0.0774293
-0.0769047
-0.0763476
-0.0757568
-0.0751315
-0.074472
-0.0737783
-0.0730501
-0.0722869
-0.0714931
-0.0706902
-0.0887583
-0.0886151
-0.0883728
-0.0881001
-0.0878179
-0.0875222
-0.0872145
-0.0869028
-0.0865911
-0.0862761
-0.085955
-0.0856179
-0.0852589
-0.0848882
-0.0845134
-0.0841257
-0.0837181
-0.08329
-0.0828389
-0.0823631
-0.0818617
-0.0813323
-0.0807738
-0.0801855
-0.0795658
-0.0789135
-0.0782278
-0.0775087
-0.0767566
-0.075972
-0.0751547
-0.0743045
-0.0734217
-0.0725107
-0.07159
-0.0935228
-0.0933609
-0.0930784
-0.0927607
-0.0924336
-0.0920963
-0.0917477
-0.0913874
-0.0910136
-0.0906254
-0.090216
-0.0897786
-0.0893121
-0.0888208
-0.0883113
-0.0877854
-0.0872382
-0.0866661
-0.0860683
-0.0854439
-0.0847922
-0.0841125
-0.083403
-0.0826631
-0.0818924
-0.0810903
-0.080257
-0.0793927
-0.0784981
-0.0775733
-0.0766182
-0.0756331
-0.0746186
-0.073579
-0.0725297
-0.0990548
-0.0988844
-0.0985686
-0.0982151
-0.0978511
-0.0974637
-0.0970483
-0.0966048
-0.09613
-0.0956153
-0.0950582
-0.0944646
-0.093842
-0.0931944
-0.0925215
-0.0918228
-0.0910984
-0.0903485
-0.0895735
-0.0887726
-0.0879447
-0.0870893
-0.086206
-0.0852947
-0.0843549
-0.0833865
-0.0823899
-0.0813658
-0.0803143
-0.0792359
-0.0781307
-0.0769994
-0.0758431
-0.0746656
-0.073478
-0.105259
-0.105079
-0.104735
-0.104336
-0.103908
-0.103442
-0.102928
-0.10236
-0.101733
-0.101047
-0.100307
-0.099524
-0.0987099
-0.0978666
-0.0969942
-0.096095
-0.095171
-0.094223
-0.0932503
-0.0922528
-0.0912304
-0.090183
-0.0891104
-0.0880125
-0.0868893
-0.0857411
-0.0845687
-0.0833726
-0.0821533
-0.080911
-0.0796465
-0.0783609
-0.0770553
-0.0757326
-0.0743997
-0.111905
-0.11172
-0.111351
-0.110907
-0.110404
-0.109825
-0.109164
-0.108423
-0.107602
-0.106709
-0.105762
-0.10477
-0.103741
-0.102678
-0.101588
-0.100474
-0.099336
-0.0981749
-0.096991
-0.0957845
-0.0945557
-0.0933047
-0.0920318
-0.0907371
-0.089421
-0.0880844
-0.0867279
-0.0853523
-0.0839581
-0.0825459
-0.0811167
-0.0796718
-0.0782126
-0.0767407
-0.0752578
-0.0663188
-0.0663493
-0.0664149
-0.0665044
-0.0666029
-0.0667043
-0.066807
-0.0669103
-0.0670134
-0.0671158
-0.0672172
-0.0673175
-0.0674163
-0.0675138
-0.0676097
-0.0677041
-0.067797
-0.0678883
-0.067978
-0.0680661
-0.0681526
-0.0682376
-0.068321
-0.0684028
-0.0684831
-0.0685619
-0.0686393
-0.0687154
-0.0687903
-0.068864
-0.0689368
-0.0690088
-0.06908
-0.0691509
-0.0692239
-0.0659527
-0.065989
-0.0660652
-0.0661676
-0.0662791
-0.0663928
-0.0665074
-0.0666221
-0.0667361
-0.066849
-0.0669604
-0.0670702
-0.0671781
-0.0672842
-0.0673883
-0.0674904
-0.0675905
-0.0676885
-0.0677844
-0.0678783
-0.0679701
-0.0680599
-0.0681475
-0.0682331
-0.0683165
-0.068398
-0.0684774
-0.0685549
-0.0686306
-0.0687045
-0.0687768
-0.0688476
-0.0689167
-0.0689859
-0.069058
-0.0656395
-0.0656816
-0.0657678
-0.0658813
-0.0660033
-0.066127
-0.0662513
-0.0663754
-0.0664985
-0.0666201
-0.0667398
-0.0668575
-0.066973
-0.0670863
-0.0671972
-0.0673057
-0.0674119
-0.0675155
-0.0676167
-0.0677154
-0.0678115
-0.067905
-0.067996
-0.0680844
-0.0681702
-0.0682535
-0.0683342
-0.0684125
-0.0684883
-0.0685619
-0.0686333
-0.0687025
-0.0687694
-0.0688361
-0.0689056
-0.0653944
-0.0654418
-0.0655365
-0.0656585
-0.0657877
-0.0659181
-0.0660489
-0.0661793
-0.0663086
-0.0664361
-0.0665616
-0.0666847
-0.0668055
-0.0669237
-0.0670394
-0.0671524
-0.0672627
-0.0673702
-0.0674749
-0.0675768
-0.0676758
-0.0677719
-0.067865
-0.0679552
-0.0680424
-0.0681266
-0.0682079
-0.0682862
-0.0683617
-0.0684344
-0.0685045
-0.068572
-0.0686367
-0.0687002
-0.0687652
-0.0652295
-0.0652799
-0.0653806
-0.0655081
-0.0656414
-0.0657754
-0.0659096
-0.0660434
-0.0661761
-0.066307
-0.0664358
-0.0665622
-0.0666861
-0.0668073
-0.0669258
-0.0670413
-0.067154
-0.0672636
-0.0673702
-0.0674737
-0.0675741
-0.0676713
-0.0677653
-0.067856
-0.0679434
-0.0680276
-0.0681085
-0.068186
-0.0682604
-0.0683317
-0.0684001
-0.0684657
-0.068528
-0.0685875
-0.0686462
-0.0651403
-0.0651926
-0.0653053
-0.0654368
-0.0655701
-0.065704
-0.0658387
-0.0659733
-0.0661068
-0.0662385
-0.0663682
-0.0664955
-0.0666201
-0.066742
-0.0668611
-0.0669771
-0.0670902
-0.0672001
-0.0673068
-0.0674102
-0.0675104
-0.0676072
-0.0677007
-0.0677907
-0.0678773
-0.0679604
-0.06804
-0.0681161
-0.0681888
-0.0682582
-0.0683244
-0.0683878
-0.0684476
-0.0685026
-0.0685535
-0.0651575
-0.065208
-0.065313
-0.0654415
-0.0655738
-0.0657068
-0.0658403
-0.0659735
-0.0661056
-0.0662358
-0.0663638
-0.0664894
-0.0666123
-0.0667325
-0.0668498
-0.066964
-0.0670753
-0.0671833
-0.0672882
-0.0673898
-0.0674881
-0.067583
-0.0676745
-0.0677626
-0.0678471
-0.0679281
-0.0680056
-0.0680795
-0.0681498
-0.0682167
-0.0682804
-0.0683413
-0.0683985
-0.0684483
-0.0684906
-0.0652666
-0.0653143
-0.0654091
-0.0655307
-0.0656588
-0.0657879
-0.0659172
-0.066046
-0.0661736
-0.0662994
-0.0664229
-0.0665441
-0.0666627
-0.0667786
-0.0668917
-0.0670019
-0.0671092
-0.0672134
-0.0673146
-0.0674126
-0.0675074
-0.067599
-0.0676872
-0.067772
-0.0678535
-0.0679314
-0.0680059
-0.0680769
-0.0681443
-0.0682082
-0.0682689
-0.0683267
-0.0683807
-0.0684251
-0.068459
-0.0654476
-0.0654907
-0.0655767
-0.0656896
-0.0658105
-0.0659328
-0.0660556
-0.0661779
-0.0662992
-0.0664186
-0.0665361
-0.0666512
-0.0667638
-0.0668739
-0.0669813
-0.0670859
-0.0671877
-0.0672866
-0.0673827
-0.0674758
-0.0675658
-0.0676528
-0.0677366
-0.0678173
-0.0678947
-0.0679688
-0.0680396
-0.0681069
-0.0681708
-0.0682312
-0.0682883
-0.0683424
-0.0683928
-0.0684339
-0.0684579
-0.0656997
-0.0657371
-0.0658133
-0.0659158
-0.0660269
-0.06614
-0.0662537
-0.0663671
-0.0664797
-0.0665908
-0.0667
-0.066807
-0.0669118
-0.0670143
-0.0671142
-0.0672117
-0.0673065
-0.0673988
-0.0674885
-0.0675754
-0.0676596
-0.067741
-0.0678196
-0.0678952
-0.0679679
-0.0680376
-0.0681042
-0.0681676
-0.0682278
-0.0682848
-0.0683386
-0.06839
-0.0684383
-0.068474
-0.0684877
-0.06601
-0.0660417
-0.0661074
-0.0661977
-0.066297
-0.0663987
-0.0665012
-0.0666038
-0.0667058
-0.0668065
-0.0669058
-0.0670032
-0.0670986
-0.067192
-0.0672832
-0.0673723
-0.0674591
-0.0675436
-0.0676259
-0.0677058
-0.0677833
-0.0678583
-0.0679309
-0.0680009
-0.0680683
-0.068133
-0.068195
-0.0682542
-0.0683105
-0.0683638
-0.0684145
-0.0684636
-0.0685096
-0.0685388
-0.0685409
-0.0663623
-0.0663888
-0.0664449
-0.0665223
-0.0666083
-0.0666971
-0.066787
-0.0668774
-0.0669674
-0.0670566
-0.0671445
-0.067231
-0.0673159
-0.0673992
-0.0674806
-0.0675603
-0.0676381
-0.0677141
-0.0677882
-0.0678603
-0.0679304
-0.0679986
-0.0680646
-0.0681285
-0.0681901
-0.0682495
-0.0683065
-0.0683611
-0.0684132
-0.0684626
-0.0685096
-0.0685555
-0.0685986
-0.0686227
-0.0686143
-0.0667476
-0.0667675
-0.0668124
-0.0668758
-0.0669479
-0.067023
-0.0670994
-0.0671765
-0.0672537
-0.0673303
-0.067406
-0.0674808
-0.0675544
-0.0676267
-0.0676977
-0.0677674
-0.0678357
-0.0679025
-0.0679679
-0.0680318
-0.0680942
-0.068155
-0.0682142
-0.0682716
-0.0683273
-0.0683811
-0.068433
-0.0684829
-0.0685306
-0.068576
-0.0686194
-0.068662
-0.0687021
-0.0687214
-0.0687035
-0.0671482
-0.0671621
-0.067195
-0.0672446
-0.0673027
-0.0673638
-0.0674264
-0.0674898
-0.0675536
-0.0676171
-0.0676803
-0.0677429
-0.0678047
-0.0678658
-0.067926
-0.0679853
-0.0680437
-0.0681011
-0.0681576
-0.0682131
-0.0682675
-0.0683208
-0.0683729
-0.0684239
-0.0684735
-0.0685217
-0.0685684
-0.0686136
-0.068657
-0.0686985
-0.0687384
-0.0687778
-0.0688148
-0.0688298
-0.0688034
-0.0675473
-0.0675563
-0.0675792
-0.0676157
-0.0676599
-0.0677071
-0.0677559
-0.0678057
-0.0678561
-0.0679066
-0.0679572
-0.0680075
-0.0680576
-0.0681073
-0.0681566
-0.0682056
-0.0682541
-0.0683021
-0.0683497
-0.0683967
-0.0684431
-0.068489
-0.0685342
-0.0685786
-0.0686222
-0.0686649
-0.0687066
-0.0687472
-0.0687864
-0.0688241
-0.0688606
-0.068897
-0.0689312
-0.0689423
-0.0689082
-0.0679343
-0.0679405
-0.0679545
-0.0679786
-0.0680093
-0.068043
-0.0680783
-0.0681148
-0.068152
-0.0681898
-0.068228
-0.0682663
-0.0683048
-0.0683434
-0.0683821
-0.0684208
-0.0684596
-0.0684984
-0.0685372
-0.068576
-0.0686146
-0.0686532
-0.0686916
-0.0687297
-0.0687674
-0.0688048
-0.0688415
-0.0688776
-0.0689128
-0.068947
-0.0689802
-0.0690138
-0.0690455
-0.069053
-0.0690118
-0.068302
-0.0683027
-0.0683083
-0.0683215
-0.0683399
-0.0683609
-0.0683835
-0.0684072
-0.0684321
-0.0684578
-0.0684842
-0.0685111
-0.0685386
-0.0685666
-0.0685951
-0.068624
-0.0686534
-0.0686836
-0.0687143
-0.068745
-0.0687761
-0.0688076
-0.0688394
-0.0688714
-0.0689035
-0.0689356
-0.0689677
-0.0689995
-0.0690308
-0.0690614
-0.0690915
-0.0691223
-0.0691516
-0.0691555
-0.0691075
-0.0686383
-0.0686364
-0.0686345
-0.0686375
-0.0686444
-0.0686537
-0.0686651
-0.0686777
-0.0686906
-0.0687047
-0.0687201
-0.0687364
-0.0687535
-0.0687715
-0.0687903
-0.0688101
-0.0688311
-0.0688529
-0.068875
-0.0688979
-0.068922
-0.0689469
-0.0689724
-0.0689986
-0.0690254
-0.0690525
-0.06908
-0.0691076
-0.0691351
-0.0691622
-0.069189
-0.0692167
-0.069243
-0.0692428
-0.0691881
-0.0689371
-0.0689332
-0.0689262
-0.0689205
-0.0689176
-0.0689168
-0.0689164
-0.0689162
-0.0689192
-0.0689252
-0.0689315
-0.068938
-0.0689456
-0.0689544
-0.0689645
-0.0689758
-0.0689884
-0.0690018
-0.0690163
-0.0690323
-0.0690496
-0.069068
-0.0690874
-0.0691079
-0.0691293
-0.0691515
-0.0691744
-0.0691977
-0.0692212
-0.0692444
-0.0692674
-0.0692912
-0.0693127
-0.0693065
-0.0692441
-0.069194
-0.0691884
-0.069177
-0.069164
-0.0691525
-0.0691437
-0.0691371
-0.0691305
-0.0691232
-0.0691172
-0.0691134
-0.069111
-0.06911
-0.0691102
-0.0691118
-0.0691151
-0.0691199
-0.0691263
-0.0691343
-0.0691439
-0.0691548
-0.0691671
-0.0691807
-0.0691956
-0.0692117
-0.0692288
-0.0692468
-0.0692655
-0.0692846
-0.0693037
-0.0693226
-0.0693412
-0.0693541
-0.0693409
-0.0692715
-0.0694128
-0.0694058
-0.069391
-0.0693727
-0.0693544
-0.0693371
-0.0693204
-0.0693043
-0.0692905
-0.0692787
-0.069268
-0.0692587
-0.0692511
-0.0692453
-0.0692412
-0.0692381
-0.0692357
-0.0692341
-0.0692339
-0.0692357
-0.0692394
-0.0692449
-0.069252
-0.0692607
-0.0692708
-0.0692824
-0.0692952
-0.0693091
-0.0693237
-0.0693384
-0.0693528
-0.069366
-0.0693735
-0.0693473
-0.0692607
-0.0695939
-0.0695858
-0.0695685
-0.0695458
-0.0695222
-0.0694991
-0.069477
-0.0694557
-0.0694356
-0.0694167
-0.0693992
-0.0693831
-0.0693683
-0.0693548
-0.0693426
-0.0693322
-0.0693237
-0.0693169
-0.0693113
-0.0693068
-0.0693036
-0.0693019
-0.0693019
-0.0693034
-0.0693068
-0.0693114
-0.0693168
-0.0693232
-0.0693299
-0.0693364
-0.0693426
-0.0693488
-0.0693494
-0.0693106
-0.0691925
-0.0697386
-0.06973
-0.0697109
-0.0696853
-0.0696576
-0.0696298
-0.0696026
-0.069576
-0.0695504
-0.0695258
-0.0695024
-0.0694802
-0.0694593
-0.0694396
-0.0694214
-0.0694046
-0.0693895
-0.069376
-0.0693641
-0.0693535
-0.0693441
-0.0693356
-0.0693283
-0.0693222
-0.069317
-0.0693122
-0.069308
-0.0693038
-0.0692992
-0.0692943
-0.0692884
-0.0692826
-0.069272
-0.0692148
-0.069058
-0.0698527
-0.0698439
-0.0698243
-0.0697971
-0.0697669
-0.0697362
-0.0697054
-0.069675
-0.0696453
-0.0696163
-0.0695881
-0.069561
-0.0695349
-0.0695098
-0.0694858
-0.0694629
-0.0694411
-0.0694205
-0.069401
-0.0693825
-0.0693648
-0.0693477
-0.0693311
-0.0693147
-0.0692984
-0.0692819
-0.0692653
-0.0692482
-0.0692308
-0.0692121
-0.069192
-0.0691724
-0.0691468
-0.0690628
-0.0688494
-0.0699442
-0.0699357
-0.0699163
-0.0698889
-0.0698578
-0.0698255
-0.0697927
-0.0697598
-0.0697271
-0.0696948
-0.0696629
-0.0696316
-0.0696009
-0.0695707
-0.0695411
-0.0695119
-0.0694831
-0.0694547
-0.0694265
-0.0693984
-0.0693701
-0.0693413
-0.0693118
-0.0692813
-0.0692498
-0.0692175
-0.0691846
-0.0691514
-0.0691183
-0.0690855
-0.0690536
-0.0690238
-0.0689841
-0.0688612
-0.0685687
-0.0700202
-0.0700123
-0.0699942
-0.0699678
-0.0699373
-0.0699049
-0.0698716
-0.0698375
-0.0698031
-0.0697686
-0.069734
-0.0696993
-0.0696645
-0.0696295
-0.0695942
-0.0695583
-0.0695219
-0.0694844
-0.0694458
-0.0694055
-0.0693632
-0.0693186
-0.0692716
-0.0692222
-0.0691707
-0.0691178
-0.0690645
-0.0690124
-0.0689629
-0.0689186
-0.0688827
-0.0688551
-0.0688166
-0.0686792
-0.068345
-0.073499
-0.0727951
-0.0720288
-0.0712326
-0.0704378
-0.0696718
-0.0689576
-0.0683124
-0.0677501
-0.06728
-0.0669069
-0.0666188
-0.066408
-0.0662163
-0.0661223
-0.0661466
-0.0663277
-0.0666982
-0.0671843
-0.0677285
-0.0683581
-0.0696901
-0.0714612
-0.0709534
-0.0703827
-0.0697762
-0.0691607
-0.06856
-0.0679944
-0.06748
-0.0670292
-0.066652
-0.0663541
-0.0661316
-0.0659801
-0.0658661
-0.0658306
-0.0659184
-0.0661157
-0.0664658
-0.0669142
-0.0674079
-0.0679468
-0.0702318
-0.0693435
-0.0690128
-0.0686219
-0.0681924
-0.067746
-0.0673038
-0.0668838
-0.0665002
-0.0661637
-0.0658845
-0.0656675
-0.0655142
-0.0654242
-0.0653804
-0.0653945
-0.0655137
-0.0657189
-0.0660417
-0.066449
-0.066989
-0.0673729
-0.0708587
-0.06715
-0.0669798
-0.0667515
-0.0664849
-0.0661964
-0.0659047
-0.065625
-0.0653699
-0.0651485
-0.0649695
-0.0648388
-0.0647589
-0.0647329
-0.0647534
-0.0648201
-0.064963
-0.0651802
-0.0654785
-0.0658236
-0.066328
-0.0666343
-0.0711074
-0.0648904
-0.0648627
-0.0647851
-0.0646665
-0.0645248
-0.0643743
-0.0642306
-0.064101
-0.0639947
-0.0639179
-0.0638778
-0.0638769
-0.06392
-0.0640065
-0.0641342
-0.0643186
-0.0645576
-0.0648606
-0.0651872
-0.0656293
-0.0658631
-0.0706149
-0.0625555
-0.0626777
-0.0627204
-0.0627485
-0.0627319
-0.0627158
-0.0626953
-0.0626926
-0.0626974
-0.0627253
-0.0627751
-0.0628574
-0.0629723
-0.0631286
-0.0633181
-0.0635582
-0.0638302
-0.0641586
-0.0645086
-0.0649382
-0.0652779
-0.0695651
-0.0602182
-0.0603815
-0.0606033
-0.0607013
-0.0608467
-0.0609016
-0.0610399
-0.0611142
-0.0612635
-0.0613696
-0.0615311
-0.0616811
-0.0618822
-0.0621007
-0.0623612
-0.0626553
-0.0629789
-0.0633342
-0.0637196
-0.0641626
-0.0646697
-0.0679056
-0.0577593
-0.058146
-0.0583544
-0.0586669
-0.0588221
-0.0590686
-0.0591639
-0.0594766
-0.0595925
-0.0599073
-0.0600421
-0.0603742
-0.0605484
-0.0609229
-0.0611718
-0.0616115
-0.0619243
-0.0624039
-0.0627662
-0.0632852
-0.0637922
-0.0659677
-0.0554617
-0.0557416
-0.0562166
-0.0564608
-0.0568747
-0.057053
-0.0574055
-0.0575793
-0.0579509
-0.058145
-0.0585442
-0.0587644
-0.0591979
-0.0594343
-0.0599501
-0.0602543
-0.0608094
-0.061199
-0.0617208
-0.0621963
-0.0628364
-0.064144
-0.0529879
-0.0535036
-0.0538613
-0.0543573
-0.0546744
-0.0551301
-0.0554539
-0.0557934
-0.0561273
-0.0564736
-0.056835
-0.0572128
-0.057619
-0.0580389
-0.058462
-0.0589394
-0.0594302
-0.0599607
-0.0604177
-0.0611184
-0.0615714
-0.0627575
-0.0506891
-0.0511741
-0.0516398
-0.0521124
-0.0525739
-0.0530379
-0.0534539
-0.0538726
-0.0542678
-0.0546824
-0.0550885
-0.0555228
-0.0559589
-0.0564638
-0.0569312
-0.0574332
-0.0579602
-0.0585253
-0.0591447
-0.0597744
-0.0603882
-0.0613548
-0.0483561
-0.0488719
-0.0494157
-0.0499174
-0.0504554
-0.0509239
-0.0514217
-0.0518756
-0.0523548
-0.052795
-0.0532641
-0.053714
-0.0542096
-0.0546917
-0.0552477
-0.0557844
-0.0563704
-0.0569627
-0.0575749
-0.0582332
-0.058923
-0.0597118
-0.0459405
-0.0466596
-0.0471287
-0.0477799
-0.0482591
-0.0488249
-0.0493028
-0.0498426
-0.0503248
-0.0508499
-0.0513349
-0.0518452
-0.0523336
-0.0528541
-0.05338
-0.0539569
-0.0545207
-0.0551624
-0.0557963
-0.0564787
-0.0571693
-0.0580266
-0.043768
-0.0442439
-0.0449962
-0.0454422
-0.0461491
-0.0465397
-0.0472211
-0.0476808
-0.0482752
-0.0487889
-0.0493433
-0.0498558
-0.0504191
-0.0509466
-0.0515096
-0.0520344
-0.0526093
-0.0531988
-0.0538433
-0.0545129
-0.0552571
-0.0560294
-0.0412485
-0.0419131
-0.0424289
-0.0431416
-0.0436509
-0.0444176
-0.0449458
-0.0456731
-0.0460634
-0.0467652
-0.0472248
-0.0478504
-0.0483365
-0.0489613
-0.0494872
-0.0500754
-0.0506359
-0.0512562
-0.0518214
-0.0524635
-0.0531396
-0.0538905
-0.0391384
-0.039698
-0.0402295
-0.0407731
-0.0413552
-0.0419048
-0.0425762
-0.0431189
-0.0438387
-0.0443747
-0.0451001
-0.0455949
-0.0462674
-0.0468343
-0.0474678
-0.0478918
-0.0485413
-0.0491069
-0.0497748
-0.0503809
-0.0509577
-0.0515649
-0.037208
-0.0376188
-0.0381775
-0.0386609
-0.0391975
-0.0397085
-0.0402457
-0.0408061
-0.0413945
-0.0420872
-0.0426352
-0.0431882
-0.0438199
-0.044575
-0.0449829
-0.0456376
-0.04628
-0.0468957
-0.0474881
-0.0481213
-0.048744
-0.0493502
-0.0351529
-0.0357918
-0.0361506
-0.0366856
-0.0371263
-0.0376453
-0.0381258
-0.0386249
-0.0391165
-0.0397127
-0.0403704
-0.0409088
-0.0415407
-0.0421473
-0.0426341
-0.0432302
-0.0439191
-0.0443848
-0.0450303
-0.045723
-0.0463421
-0.0468218
-0.032883
-0.033476
-0.0341765
-0.0346976
-0.0352548
-0.0355742
-0.036093
-0.0365936
-0.0370403
-0.0374506
-0.0380317
-0.0387073
-0.0391112
-0.039733
-0.0404546
-0.0409927
-0.0414453
-0.0420027
-0.0426441
-0.0432426
-0.0438032
-0.0443305
-0.0309771
-0.0314548
-0.0320592
-0.0323733
-0.0329066
-0.0335441
-0.0339674
-0.0344959
-0.0350014
-0.0354629
-0.0358172
-0.036359
-0.0369758
-0.0374361
-0.0380181
-0.038579
-0.0390723
-0.0396226
-0.0401942
-0.0407537
-0.0412448
-0.0418171
-0.0293318
-0.0295594
-0.0300706
-0.0306792
-0.0310274
-0.0314662
-0.0318613
-0.0323485
-0.0328765
-0.0331938
-0.0336916
-0.034277
-0.0347377
-0.0352161
-0.0355949
-0.0361253
-0.0367792
-0.0372664
-0.0376845
-0.0382442
-0.0388752
-0.0393264
-0.0274884
-0.0278913
-0.0282014
-0.0286717
-0.0292212
-0.0296141
-0.0299887
-0.0303782
-0.0307045
-0.0311167
-0.0316039
-0.0320597
-0.0325724
-0.0330151
-0.0334934
-0.033998
-0.0344386
-0.03478
-0.0352985
-0.0358825
-0.0362637
-0.0367436
-0.0256987
-0.0259858
-0.0264436
-0.0269402
-0.0272984
-0.0275655
-0.0279881
-0.0284827
-0.0288505
-0.0291484
-0.029538
-0.0299982
-0.0304323
-0.0308555
-0.0312216
-0.0316691
-0.032098
-0.0325088
-0.0329092
-0.0333634
-0.0338931
-0.0343237
-0.0241865
-0.0244157
-0.0247371
-0.0251771
-0.025522
-0.0258137
-0.0261692
-0.0266133
-0.0269573
-0.0272276
-0.0276082
-0.0280219
-0.0282646
-0.028668
-0.0291251
-0.0294259
-0.0298256
-0.0302407
-0.0306389
-0.0310888
-0.0315204
-0.0319096
-0.0225143
-0.0228502
-0.0231801
-0.0233745
-0.0237617
-0.0242129
-0.024486
-0.0246909
-0.0250552
-0.0254508
-0.025651
-0.0260295
-0.0264989
-0.0267949
-0.0270165
-0.0273809
-0.027787
-0.0280541
-0.0284398
-0.028849
-0.0291359
-0.0295101
-0.0211637
-0.0213594
-0.0216257
-0.021842
-0.0221397
-0.0225065
-0.0226958
-0.023036
-0.0234415
-0.0237155
-0.0239501
-0.0242642
-0.0245974
-0.0248044
-0.0251346
-0.0254892
-0.0256968
-0.0260415
-0.0264156
-0.02664
-0.0269934
-0.0273627
-0.0196723
-0.0198577
-0.0201298
-0.0204466
-0.0205769
-0.0208511
-0.0211967
-0.0214335
-0.0216924
-0.0219978
-0.0222592
-0.0224266
-0.0227298
-0.023048
-0.0232198
-0.0235212
-0.0238526
-0.0240561
-0.0243663
-0.024705
-0.0249323
-0.0252243
-0.0183378
-0.0184694
-0.0186812
-0.0189478
-0.0191757
-0.0194355
-0.0196958
-0.0199044
-0.0200523
-0.0203075
-0.0205795
-0.0207294
-0.020989
-0.0213017
-0.0215195
-0.0216867
-0.0219503
-0.0222428
-0.0224148
-0.0226782
-0.0229909
-0.0232383
-0.0170327
-0.0172363
-0.017466
-0.0175883
-0.0178046
-0.0180694
-0.0182452
-0.0184302
-0.0185748
-0.0188009
-0.0190524
-0.0191699
-0.0194033
-0.0196593
-0.0197901
-0.0200246
-0.0202851
-0.0204335
-0.0206487
-0.0209046
-0.0211414
-0.0213603
-0.015883
-0.0160747
-0.0161636
-0.0163474
-0.0165437
-0.016657
-0.0168966
-0.0171039
-0.0172159
-0.0174036
-0.0176141
-0.0177368
-0.0179149
-0.0181248
-0.0183146
-0.0185147
-0.0187029
-0.0189037
-0.0191129
-0.0192928
-0.0194286
-0.0196187
-0.0148141
-0.0148934
-0.0150608
-0.0152373
-0.0153075
-0.015473
-0.0156581
-0.0157357
-0.0159052
-0.0161019
-0.0162044
-0.0163604
-0.0165493
-0.016724
-0.0168806
-0.0169853
-0.0171564
-0.0173404
-0.0174428
-0.0176232
-0.0178243
-0.0179381
-0.0137738
-0.0139047
-0.0140554
-0.0142101
-0.0143512
-0.0144167
-0.014565
-0.0147282
-0.014794
-0.0149403
-0.0151046
-0.0151853
-0.0153341
-0.0154912
-0.0155686
-0.0157205
-0.0158905
-0.0159789
-0.0161045
-0.0162287
-0.0163723
-0.0165203
-0.0127722
-0.0129126
-0.0129766
-0.0130963
-0.013245
-0.0133694
-0.0135105
-0.0136534
-0.0137637
-0.0138264
-0.0139581
-0.0140956
-0.0141694
-0.0143227
-0.0144664
-0.014528
-0.0146587
-0.0148078
-0.014887
-0.0150055
-0.0151307
-0.0152498
-0.0119146
-0.0120347
-0.0121862
-0.0122706
-0.0123252
-0.0124372
-0.0125569
-0.0126118
-0.012726
-0.0128509
-0.012928
-0.0130458
-0.0131703
-0.0132495
-0.0133446
-0.0134283
-0.0135349
-0.0136486
-0.0137038
-0.0138136
-0.0139347
-0.013988
-0.0112478
-0.0112945
-0.0113979
-0.0115057
-0.0115538
-0.0116541
-0.0117629
-0.011815
-0.0119174
-0.0120457
-0.0121239
-0.0121781
-0.0122807
-0.0124083
-0.0124826
-0.0125325
-0.0126282
-0.0127291
-0.0127736
-0.0128686
-0.0129684
-0.0130102
-0.0105701
-0.0106271
-0.0107129
-0.0108107
-0.0108539
-0.0109411
-0.0110376
-0.0110861
-0.0111754
-0.0112875
-0.0113565
-0.0114016
-0.011484
-0.0115781
-0.0116257
-0.0117055
-0.0117905
-0.0118371
-0.0119157
-0.0120085
-0.0120748
-0.0121388
-0.0100973
-0.0101781
-0.0102532
-0.0103151
-0.0103961
-0.0104957
-0.0105642
-0.0106087
-0.0106867
-0.0107769
-0.0108244
-0.0108926
-0.010962
-0.0110303
-0.0111028
-0.0111494
-0.0112187
-0.0112872
-0.0113181
-0.0113866
-0.0114602
-0.011488
-0.00937476
-0.0094589
-0.00954313
-0.00962776
-0.00972502
-0.00983147
-0.00990018
-0.00999672
-0.0100959
-0.010168
-0.0102602
-0.0103504
-0.0104393
-0.0105354
-0.0106072
-0.0106722
-0.0107297
-0.0107748
-0.0108238
-0.0108617
-0.0109114
-0.0109655
-0.00919956
-0.00929499
-0.0093988
-0.00945646
-0.0095502
-0.00965272
-0.00971002
-0.00980312
-0.00990373
-0.00996268
-0.0100598
-0.0101693
-0.0102279
-0.0102954
-0.0103505
-0.0103936
-0.0104348
-0.0104886
-0.0105493
-0.0105748
-0.0106289
-0.0106898
-0.0087394
-0.00881167
-0.00888314
-0.00895509
-0.00902884
-0.00910133
-0.00917432
-0.00923623
-0.00929888
-0.00937253
-0.00944038
-0.00951094
-0.00957956
-0.0096469
-0.00971284
-0.00977666
-0.00983893
-0.00989938
-0.00995848
-0.0100158
-0.0100712
-0.0101259
-0.0262407
-0.0281024
-0.0299284
-0.0316022
-0.0332602
-0.034939
-0.0366388
-0.0383575
-0.0400944
-0.0418477
-0.0436152
-0.0453935
-0.0471792
-0.0489683
-0.0507564
-0.0525394
-0.0543126
-0.0560721
-0.0578134
-0.0595323
-0.0612247
-0.0628868
-0.064515
-0.0661056
-0.0676554
-0.0691621
-0.0706235
-0.0720382
-0.0734061
-0.0747328
-0.0760267
-0.0772896
-0.0784931
-0.0794267
-0.0798734
-0.0312228
-0.0332425
-0.0351595
-0.0369093
-0.0386641
-0.0404592
-0.0422823
-0.044127
-0.0459912
-0.0478729
-0.049769
-0.0516761
-0.0535904
-0.0555076
-0.0574233
-0.0593331
-0.0612326
-0.0631173
-0.064983
-0.0668251
-0.0686396
-0.0704228
-0.0721708
-0.0738798
-0.0755467
-0.0771688
-0.078744
-0.0802707
-0.0817484
-0.0831806
-0.084575
-0.0859398
-0.0872132
-0.0882646
-0.0886974
-0.0361691
-0.038218
-0.0402003
-0.0420436
-0.0439071
-0.0458161
-0.0477576
-0.0497234
-0.0517102
-0.0537152
-0.0557348
-0.0577651
-0.0598019
-0.0618412
-0.0638785
-0.0659094
-0.0679291
-0.0699335
-0.0719179
-0.0738779
-0.0758093
-0.0777083
-0.0795712
-0.0813942
-0.0831743
-0.0849086
-0.0865951
-0.088232
-0.089819
-0.0913578
-0.0928567
-0.0943084
-0.0956768
-0.0967327
-0.0971923
-0.0407394
-0.0429051
-0.0449904
-0.0469517
-0.0489325
-0.0509586
-0.0530171
-0.0551004
-0.0572049
-0.0593274