/*--------------------------------*- C++ -*----------------------------------*\
| =========                 |                                                 |
| \\      /  F ield         | OpenFOAM: The Open Source CFD Toolbox           |
|  \\    /   O peration     | Version:  v2012                                 |
|   \\  /    A nd           | Website:  www.openfoam.com                      |
|    \\/     M anipulation  |                                                 |
\*---------------------------------------------------------------------------*/
FoamFile
{
    version     2.0;
    format      ascii;
    class       surfaceScalarField;
    location    "1";
    object      phi;
}
// * * * * * * * * * * * * * * * * * * * * * * * * * * * * * * * * * * * * * //

dimensions      [0 3 -1 0 0 0 0];
oriented        oriented;


internalField   nonuniform List<scalar> 
152621
(
3.65556e-08
8.66401e-07
-9.02957e-07
1.07929e-07
1.87537e-06
-1.94674e-06
1.95919e-07
2.39362e-06
-2.48161e-06
2.93395e-07
2.71698e-06
-2.81446e-06
3.97542e-07
2.96336e-06
-3.06751e-06
5.0717e-07
3.17288e-06
-3.2825e-06
6.21904e-07
3.36151e-06
-3.47624e-06
7.41864e-07
3.53649e-06
-3.65645e-06
8.67582e-07
3.70123e-06
-3.82694e-06
1.00002e-06
3.85715e-06
-3.98959e-06
1.14061e-06
4.00453e-06
-4.14512e-06
1.29123e-06
4.14287e-06
-4.29349e-06
1.45432e-06
4.271e-06
-4.43408e-06
1.6329e-06
4.38719e-06
-4.56577e-06
1.83082e-06
4.48904e-06
-4.68696e-06
2.05304e-06
4.57341e-06
-4.79563e-06
2.306e-06
4.63621e-06
-4.88918e-06
2.59807e-06
4.67226e-06
-4.96434e-06
2.94007e-06
4.67503e-06
-5.01703e-06
3.34592e-06
4.63631e-06
-5.04216e-06
3.8335e-06
4.5458e-06
-5.03339e-06
4.42581e-06
4.39054e-06
-4.98285e-06
5.15239e-06
4.15418e-06
-4.88076e-06
6.05126e-06
3.81603e-06
-4.7149e-06
7.17097e-06
3.35024e-06
-4.46995e-06
8.57313e-06
2.72464e-06
-4.1268e-06
1.0334e-05
1.90051e-06
-3.66141e-06
1.25474e-05
8.31291e-07
-3.0447e-06
1.53172e-05
-5.29452e-07
-2.24034e-06
1.87652e-05
-2.23968e-06
-1.20829e-06
2.30011e-05
-4.33608e-06
1.00197e-07
2.81683e-05
-6.90427e-06
1.73702e-06
3.43273e-05
-9.93775e-06
3.7788e-06
4.16018e-05
-1.35716e-05
6.29708e-06
-1.76887e-05
9.27431e-06
5.00162e-05
1.1364e-08
8.55037e-07
4.371e-08
1.84302e-06
9.20239e-08
2.34531e-06
1.51385e-07
2.65762e-06
2.19166e-07
2.89558e-06
2.94146e-07
3.0979e-06
3.76e-07
3.27965e-06
4.65056e-07
3.44743e-06
5.62188e-07
3.60409e-06
6.68782e-07
3.75055e-06
7.86782e-07
3.88653e-06
9.18815e-07
4.01083e-06
1.06839e-06
4.12142e-06
1.2402e-06
4.21537e-06
1.44052e-06
4.28872e-06
1.67763e-06
4.3363e-06
1.96225e-06
4.35159e-06
2.30821e-06
4.32631e-06
2.73321e-06
4.25002e-06
3.26002e-06
4.10951e-06
3.91781e-06
3.88801e-06
4.74398e-06
3.56438e-06
5.78604e-06
3.11212e-06
7.10331e-06
2.49876e-06
8.76917e-06
1.68439e-06
1.08693e-05
6.24464e-07
1.3501e-05
-7.31103e-07
1.67628e-05
-2.43058e-06
2.07678e-05
-4.5344e-06
2.5609e-05
-7.08094e-06
3.14257e-05
-1.01527e-05
3.8275e-05
-1.37537e-05
4.63732e-05
-1.80359e-05
5.5637e-05
-2.28354e-05
-2.78854e-05
6.58338e-05
-1.96599e-08
8.74697e-07
-3.56088e-08
1.85897e-06
-3.69359e-08
2.34663e-06
-2.62694e-08
2.64695e-06
-5.60965e-09
2.87492e-06
2.42623e-08
3.06802e-06
6.34575e-08
3.24046e-06
1.12839e-07
3.39805e-06
1.73979e-07
3.54295e-06
2.49277e-07
3.67526e-06
3.42074e-07
3.79374e-06
4.5697e-07
3.89594e-06
6.00204e-07
3.97819e-06
7.80073e-07
4.03551e-06
1.00727e-06
4.06152e-06
1.29554e-06
4.04803e-06
1.66251e-06
3.98462e-06
2.1308e-06
3.85803e-06
2.72939e-06
3.65143e-06
3.49524e-06
3.34366e-06
4.47485e-06
2.9084e-06
5.72575e-06
2.31347e-06
7.31761e-06
1.52026e-06
9.33114e-06
4.8523e-07
1.18525e-05
-8.36997e-07
1.4974e-05
-2.49704e-06
1.87834e-05
-4.54047e-06
2.33762e-05
-7.02339e-06
2.88336e-05
-9.99177e-06
3.52785e-05
-1.35259e-05
4.27587e-05
-1.76329e-05
5.14363e-05
-2.24312e-05
6.13315e-05
-2.79311e-05
7.25707e-05
-3.40747e-05
-4.00175e-05
8.47028e-05
-4.60852e-08
9.20782e-07
-1.04943e-07
1.91783e-06
-1.55797e-07
2.39749e-06
-1.94785e-07
2.68594e-06
-2.21789e-07
2.90192e-06
-2.36481e-07
3.08272e-06
-2.3767e-07
3.24165e-06
-2.23254e-07
3.38364e-06
-1.89954e-07
3.50965e-06
-1.33167e-07
3.61847e-06
-4.66001e-08
3.70717e-06
7.80487e-08
3.77129e-06
2.51386e-07
3.80485e-06
4.86972e-07
3.79992e-06
8.02259e-07
3.74623e-06
1.21964e-06
3.63065e-06
1.76774e-06
3.43652e-06
2.48282e-06
3.14294e-06
3.41019e-06
2.72406e-06
4.60504e-06
2.14881e-06
6.13351e-06
1.37993e-06
8.06975e-06
3.77231e-07
1.04934e-05
-9.03375e-07
1.34848e-05
-2.50624e-06
1.71272e-05
-4.47931e-06
2.1498e-05
-6.86791e-06
2.6695e-05
-9.73741e-06
3.27882e-05
-1.31166e-05
3.98776e-05
-1.70812e-05
4.80182e-05
-2.16665e-05
5.73129e-05
-2.69275e-05
6.77989e-05
-3.29173e-05
7.93221e-05
-3.94543e-05
9.19102e-05
-4.66628e-05
-5.3141e-05
0.000105034
-6.47139e-08
9.85496e-07
-1.55677e-07
2.00879e-06
-2.41568e-07
2.48338e-06
-3.15272e-07
2.75964e-06
-3.74234e-07
2.96089e-06
-4.159e-07
3.12438e-06
-4.36594e-07
3.26234e-06
-4.31703e-07
3.37875e-06
-3.95065e-07
3.47302e-06
-3.18731e-07
3.54214e-06
-1.92501e-07
3.58094e-06
-3.08284e-09
3.58187e-06
2.66692e-07
3.53508e-06
6.3878e-07
3.42783e-06
1.1412e-06
3.24381e-06
1.80928e-06
2.96257e-06
2.68657e-06
2.55923e-06
3.82558e-06
2.00394e-06
5.28767e-06
1.26197e-06
7.14161e-06
2.94869e-07
9.45824e-06
-9.36692e-07
1.23129e-05
-2.47747e-06
1.57757e-05
-4.36618e-06
1.99295e-05
-6.65999e-06
2.48512e-05
-9.40101e-06
3.06254e-05
-1.26421e-05
3.73162e-05
-1.64281e-05
4.50193e-05
-2.08198e-05
5.3785e-05
-2.58469e-05
6.36476e-05
-3.15291e-05
7.45712e-05
-3.78511e-05
8.62942e-05
-4.46403e-05
9.8599e-05
-5.17591e-05
0.000110972
-5.90359e-05
-6.55733e-05
0.000123404
-7.41406e-08
1.05964e-06
-1.78468e-07
2.11312e-06
-2.76513e-07
2.58142e-06
-3.57876e-07
2.84101e-06
-4.18019e-07
3.02103e-06
-4.51289e-07
3.15765e-06
-4.51759e-07
3.26281e-06
-4.12096e-07
3.33908e-06
-3.22686e-07
3.38361e-06
-1.70749e-07
3.3902e-06
6.02681e-08
3.34992e-06
3.91585e-07
3.25056e-06
8.50344e-07
3.07632e-06
1.47053e-06
2.80765e-06
2.29349e-06
2.42085e-06
3.36804e-06
1.88802e-06
4.75105e-06
1.17622e-06
6.50452e-06
2.50462e-07
8.69483e-06
-9.28337e-07
1.13876e-05
-2.39788e-06
1.46545e-05
-4.20361e-06
1.85622e-05
-6.38516e-06
2.32002e-05
-9.00415e-06
2.86264e-05
-1.20862e-05
3.49297e-05
-1.57043e-05
4.21739e-05
-1.98864e-05
5.04274e-05
-2.46816e-05
5.97167e-05
-3.0109e-05
6.99623e-05
-3.60926e-05
8.10182e-05
-4.2585e-05
9.25252e-05
-4.93581e-05
0.00010408
-5.61951e-05
0.00011532
-6.29994e-05
0.000125919
-6.96342e-05
-7.55783e-05
0.000135924
-7.89105e-08
1.13855e-06
-1.78571e-07
2.21278e-06
-2.5957e-07
2.66242e-06
-3.11851e-07
2.89329e-06
-3.30897e-07
3.04008e-06
-3.11167e-07
3.13792e-06
-2.43858e-07
3.1955e-06
-1.17254e-07
3.21248e-06
8.42613e-08
3.18209e-06
3.81066e-07
3.09339e-06
7.9923e-07
2.93176e-06
1.37088e-06
2.6789e-06
2.13446e-06
2.31274e-06
3.13508e-06
1.80703e-06
4.42444e-06
1.13149e-06
6.06001e-06
2.52455e-07
8.10126e-06
-8.65035e-07
1.06127e-05
-2.26094e-06
1.36548e-05
-3.97048e-06
1.73052e-05
-6.04829e-06
2.16251e-05
-8.52351e-06
2.66987e-05
-1.14587e-05
3.2585e-05
-1.48905e-05
3.9373e-05
-1.88742e-05
4.71037e-05
-2.3435e-05
5.58064e-05
-2.8589e-05
6.54157e-05
-3.4291e-05
7.57423e-05
-4.04357e-05
8.65374e-05
-4.68876e-05
9.73501e-05
-5.33976e-05
0.000107811
-5.98187e-05
0.000117609
-6.59935e-05
0.000126501
-7.18917e-05
0.00013437
-7.75032e-05
-8.27417e-05
0.000141534
-8.19486e-08
1.2205e-06
-1.55658e-07
2.28649e-06
-1.87886e-07
2.69465e-06
-1.76822e-07
2.88222e-06
-1.18503e-07
2.98176e-06
-4.4404e-09
3.02386e-06
1.78216e-07
3.01285e-06
4.48465e-07
2.94223e-06
8.30624e-07
2.79993e-06
1.35438e-06
2.56964e-06
2.0551e-06
2.23103e-06
2.97413e-06
1.75988e-06
4.15907e-06
1.12779e-06
5.6625e-06
3.03612e-07
7.54083e-06
-7.46841e-07
9.85193e-06
-2.05865e-06
1.26589e-05
-3.67199e-06
1.60253e-05
-5.62733e-06
2.0028e-05
-7.97321e-06
2.47256e-05
-1.07459e-05
3.02032e-05
-1.40011e-05
3.65196e-05
-1.77751e-05
4.3734e-05
-2.21049e-05
5.18552e-05
-2.69954e-05
6.0825e-05
-3.24048e-05
7.04855e-05
-3.82495e-05
8.05506e-05
-4.43561e-05
9.06485e-05
-5.05335e-05
0.00010037
-5.66088e-05
0.000109405
-6.24334e-05
0.000117534
-6.7947e-05
0.00012473
-7.31902e-05
0.000131095
-7.82564e-05
0.000136784
-8.31923e-05
-8.79578e-05
0.000142
-7.62596e-08
1.29676e-06
-1.01843e-07
2.31207e-06
-6.15312e-08
2.65434e-06
3.86319e-08
2.78206e-06
2.04979e-07
2.81541e-06
4.51749e-07
2.77709e-06
7.99533e-07
2.66506e-06
1.27464e-06
2.46712e-06
1.90904e-06
2.16553e-06
2.74057e-06
1.73811e-06
3.81295e-06
1.15865e-06
5.17546e-06
3.97366e-07
6.88077e-06
-5.77518e-07
8.98553e-06
-1.80115e-06
1.15476e-05
-3.30894e-06
1.46337e-05
-5.14471e-06
1.83065e-05
-7.34483e-06
2.26406e-05
-9.96143e-06
2.77007e-05
-1.30333e-05
3.35571e-05
-1.66023e-05
4.02529e-05
-2.06968e-05
4.78039e-05
-2.53262e-05
5.61655e-05
-3.04665e-05
6.51559e-05
-3.59857e-05
7.45466e-05
-4.17955e-05
8.39426e-05
-4.76455e-05
9.29981e-05
-5.34117e-05
0.000101392
-5.89274e-05
0.000108896
-6.41131e-05
0.000115471
-6.90081e-05
0.000121236
-7.37124e-05
0.00012637
-7.83241e-05
0.00013101
-8.2896e-05
0.000135276
-8.74588e-05
-9.20218e-05
0.00013934
-7.07515e-08
1.36751e-06
-3.32104e-08
2.27453e-06
9.87167e-08
2.52241e-06
3.13744e-07
2.56703e-06
6.22318e-07
2.50684e-06
1.04437e-06
2.35503e-06
1.60753e-06
2.1019e-06
2.34577e-06
1.72888e-06
3.29921e-06
1.2121e-06
4.51386e-06
5.23454e-07
6.04008e-06
-3.67566e-07
7.93154e-06
-1.49408e-06
1.0246e-05
-2.89198e-06
1.30439e-05
-4.59901e-06
1.63939e-05
-6.65901e-06
2.03614e-05
-9.11218e-06
2.50189e-05
-1.20023e-05
3.04251e-05
-1.53676e-05
3.66285e-05
-1.92367e-05
4.36375e-05
-2.36113e-05
5.14027e-05
-2.84621e-05
5.97983e-05
-3.37217e-05
6.85449e-05
-3.92131e-05
7.73366e-05
-4.47774e-05
8.57727e-05
-5.02316e-05
9.35575e-05
-5.54303e-05
0.000100462
-6.03164e-05
0.000106443
-6.49085e-05
0.000111649
-6.93187e-05
0.000116269
-7.36283e-05
0.000120466
-7.79096e-05
0.00012435
-8.2208e-05
0.000128009
-8.65553e-05
0.000131526
-9.09752e-05
-9.54754e-05
0.000134979
-4.9752e-08
1.41726e-06
6.07209e-08
2.16406e-06
2.99154e-07
2.28398e-06
6.51872e-07
2.21431e-06
1.13264e-06
2.02606e-06
1.76856e-06
1.71912e-06
2.5952e-06
1.27526e-06
3.65517e-06
6.68915e-07
4.99632e-06
-1.2905e-07
6.67047e-06
-1.1507e-06
8.73346e-06
-2.43055e-06
1.12448e-05
-4.00538e-06
1.42697e-05
-5.9169e-06
1.78758e-05
-8.20517e-06
2.21288e-05
-1.09119e-05
2.70929e-05
-1.40763e-05
3.2807e-05
-1.77164e-05
3.92798e-05
-2.18404e-05
4.6474e-05
-2.64309e-05
5.42517e-05
-3.1389e-05
6.24083e-05
-3.66186e-05
7.05871e-05
-4.19005e-05
7.84426e-05
-4.70686e-05
8.56674e-05
-5.20022e-05
9.20552e-05
-5.66195e-05
9.75842e-05
-6.09592e-05
0.00010237
-6.51025e-05
0.000106601
-6.91396e-05
0.000110424
-7.31415e-05
0.000113964
-7.71681e-05
0.000117306
-8.12518e-05
0.000120512
-8.54135e-05
0.000123629
-8.96724e-05
0.000126695
-9.40413e-05
-9.85234e-05
0.000129743
-7.37134e-09
1.42463e-06
1.96776e-07
1.95991e-06
5.57999e-07
1.92276e-06
1.06891e-06
1.70341e-06
1.75239e-06
1.34258e-06
2.64419e-06
8.27314e-07
3.78866e-06
1.30799e-07
5.23529e-06
-7.77716e-07
7.03859e-06
-1.93235e-06
9.25661e-06
-3.36872e-06
1.1952e-05
-5.12595e-06
1.51895e-05
-7.24292e-06
1.90353e-05
-9.76262e-06
2.35534e-05
-1.27233e-05
2.87824e-05
-1.61409e-05
3.47256e-05
-2.00196e-05
4.13511e-05
-2.4342e-05
4.856e-05
-2.90493e-05
5.61249e-05
-3.39958e-05
6.37648e-05
-3.90289e-05
7.11051e-05
-4.3959e-05
7.78429e-05
-4.86383e-05
8.37955e-05
-5.30213e-05
8.8917e-05
-5.71236e-05
9.3328e-05
-6.10304e-05
9.71978e-05
-6.48291e-05
0.000100688
-6.85926e-05
0.00010392
-7.23715e-05
0.000106979
-7.62009e-05
0.000109919
-8.01077e-05
0.000112776
-8.41093e-05
0.000115582
-8.82196e-05
0.00011836
-9.24502e-05
0.000121128
-9.68089e-05
-0.000101299
0.000123903
5.04239e-08
1.37421e-06
3.66292e-07
1.64404e-06
8.7286e-07
1.41619e-06
1.5748e-06
1.00146e-06
2.50462e-06
4.12763e-07
3.70761e-06
-3.75672e-07
5.23523e-06
-1.39683e-06
7.14453e-06
-2.68701e-06
9.49493e-06
-4.28276e-06
1.23518e-05
-6.2256e-06
1.57778e-05
-8.55192e-06
1.98342e-05
-1.12994e-05
2.45672e-05
-1.44955e-05
2.99748e-05
-1.8131e-05
3.6038e-05
-2.22041e-05
4.26644e-05
-2.66459e-05
4.96765e-05
-3.13541e-05
5.67852e-05
-3.6158e-05
6.36589e-05
-4.08694e-05
6.99863e-05
-4.53563e-05
7.55609e-05
-4.95336e-05
8.03518e-05
-5.34291e-05
8.4456e-05
-5.71255e-05
8.80424e-05
-6.071e-05
9.12644e-05
-6.42525e-05
9.42401e-05
-6.78048e-05
9.70501e-05
-7.14027e-05
9.97492e-05
-7.50705e-05
0.000102375
-7.88269e-05
0.000104954
-8.26861e-05
0.000107504
-8.66594e-05
0.00011004
-9.0756e-05
0.000112574
-9.4984e-05
0.000115115
-9.93498e-05
-0.000103856
0.000117672
1.22317e-07
1.25189e-06
5.64962e-07
1.2014e-06
1.24802e-06
7.33129e-07
2.18534e-06
6.41449e-08
3.41793e-06
-8.19829e-07
4.99866e-06
-1.9564e-06
6.98614e-06
-3.38431e-06
9.44249e-06
-5.14336e-06
1.24302e-05
-7.27042e-06
1.60062e-05
-9.80169e-06
2.02206e-05
-1.27662e-05
2.5087e-05
-1.61658e-05
3.05822e-05
-1.99907e-05
3.66401e-05
-2.4189e-05
4.31016e-05
-2.86655e-05
4.972e-05
-3.32643e-05
5.61621e-05
-3.77962e-05
6.21162e-05
-4.21121e-05
6.73787e-05
-4.6132e-05
7.18806e-05
-4.98582e-05
7.57225e-05
-5.33755e-05
7.90693e-05
-5.67759e-05
8.20693e-05
-6.01255e-05
8.48331e-05
-6.34738e-05
8.7438e-05
-6.68574e-05
8.99359e-05
-7.03027e-05
9.23621e-05
-7.38288e-05
9.47413e-05
-7.74498e-05
9.70916e-05
-8.11772e-05
9.94262e-05
-8.50207e-05
0.000101755
-8.89884e-05
0.000104087
-9.30874e-05
0.000106427
-9.73242e-05
0.00010878
-0.000101703
-0.000106228
0.000111152
2.09434e-07
1.04246e-06
8.04269e-07
6.06564e-07
1.7054e-06
-1.68e-07
2.92973e-06
-1.16019e-06
4.52529e-06
-2.41539e-06
6.55182e-06
-3.98293e-06
9.06999e-06
-5.90248e-06
1.21381e-05
-8.21147e-06
1.58073e-05
-1.09396e-05
2.01019e-05
-1.40962e-05
2.50053e-05
-1.76697e-05
3.04696e-05
-2.16302e-05
3.637e-05
-2.58911e-05
4.24904e-05
-3.03094e-05
4.85232e-05
-3.46983e-05
5.41561e-05
-3.88971e-05
5.91664e-05
-4.28065e-05
6.34699e-05
-4.64157e-05
6.71317e-05
-4.97938e-05
7.03044e-05
-5.30309e-05
7.31331e-05
-5.62042e-05
7.57234e-05
-5.93661e-05
7.8152e-05
-6.25542e-05
8.04728e-05
-6.57946e-05
8.27221e-05
-6.91067e-05
8.49245e-05
-7.2505e-05
8.70969e-05
-7.60013e-05
8.92523e-05
-7.96052e-05
9.14005e-05
-8.33254e-05
9.35486e-05
-8.71687e-05
9.57019e-05
-9.11417e-05
9.78645e-05
-9.52501e-05
0.000100039
-9.94991e-05
0.000102229
-0.000103893
-0.000108434
0.000104435
3.35312e-07
7.07144e-07
1.1241e-06
-1.82227e-07
2.28308e-06
-1.32697e-06
3.83832e-06
-2.71544e-06
5.84738e-06
-4.42444e-06
8.36634e-06
-6.50189e-06
1.14471e-05
-8.98322e-06
1.51264e-05
-1.18907e-05
1.94048e-05
-1.52181e-05
2.42452e-05
-1.89366e-05
2.95599e-05
-2.29844e-05
3.51687e-05
-2.7239e-05
4.08005e-05
-3.15229e-05
4.61424e-05
-3.56513e-05
5.09543e-05
-3.95101e-05
5.51134e-05
-4.30562e-05
5.86481e-05
-4.63412e-05
6.16903e-05
-4.94578e-05
6.43827e-05
-5.24862e-05
6.6837e-05
-5.54852e-05
6.91286e-05
-5.84958e-05
7.13092e-05
-6.15468e-05
7.34142e-05
-6.46591e-05
7.5468e-05
-6.78484e-05
7.74883e-05
-7.1127e-05
7.94884e-05
-7.4505e-05
8.14781e-05
-7.7991e-05
8.3465e-05
-8.15922e-05
8.54545e-05
-8.53149e-05
8.74505e-05
-8.91647e-05
8.94557e-05
-9.31469e-05
9.1472e-05
-9.72664e-05
9.35002e-05
-0.000101527
9.55409e-05
-0.000105933
-0.000110488
9.7595e-05
4.66512e-07
2.40632e-07
1.46764e-06
-1.18336e-06
2.91216e-06
-2.77149e-06
4.8351e-06
-4.63837e-06
7.28539e-06
-6.87473e-06
1.03026e-05
-9.5191e-06
1.39047e-05
-1.25854e-05
1.80751e-05
-1.60611e-05
2.2748e-05
-1.98911e-05
2.7798e-05
-2.39865e-05
3.30038e-05
-2.81902e-05
3.80658e-05
-3.2301e-05
4.27143e-05
-3.61714e-05
4.67914e-05
-3.97285e-05
5.02701e-05
-4.29888e-05
5.32461e-05
-4.60323e-05
5.58551e-05
-4.89503e-05
5.82098e-05
-5.18125e-05
6.03906e-05
-5.4667e-05
6.24529e-05
-5.75475e-05
6.44342e-05
-6.04771e-05
6.63602e-05
-6.34727e-05
6.82491e-05
-6.65481e-05
7.01147e-05
-6.97141e-05
7.19674e-05
-7.29796e-05
7.38145e-05
-7.63522e-05
7.56619e-05
-7.98383e-05
7.75133e-05
-8.34436e-05
7.93713e-05
-8.71729e-05
8.12374e-05
-9.10308e-05
8.31122e-05
-9.50217e-05
8.49956e-05
-9.91498e-05
8.68874e-05
-0.000103419
8.87873e-05
-0.000107833
-0.000112396
9.06955e-05
5.67502e-07
-3.2687e-07
1.7765e-06
-2.39236e-06
3.52371e-06
-4.5187e-06
5.82291e-06
-6.93757e-06
8.69194e-06
-9.74376e-06
1.21333e-05
-1.29605e-05
1.61099e-05
-1.65619e-05
2.05305e-05
-2.04817e-05
2.52371e-05
-2.45976e-05
2.99787e-05
-2.87281e-05
3.4468e-05
-3.26795e-05
3.84993e-05
-3.63322e-05
4.19822e-05
-3.96543e-05
4.49526e-05
-4.26988e-05
4.75253e-05
-4.55616e-05
4.98195e-05
-4.83265e-05
5.19231e-05
-5.10539e-05
5.3896e-05
-5.37854e-05
5.5779e-05
-5.655e-05
5.75998e-05
-5.93683e-05
5.93782e-05
-6.22555e-05
6.11293e-05
-6.52238e-05
6.28641e-05
-6.82829e-05
6.45907e-05
-7.14407e-05
6.6315e-05
-7.47039e-05
6.80409e-05
-7.80782e-05
6.97708e-05
-8.15682e-05
7.15057e-05
-8.51784e-05
7.32458e-05
-8.8913e-05
7.49912e-05
-9.27761e-05
7.67413e-05
-9.67718e-05
7.84954e-05
-0.000100904
8.02532e-05
-0.000105177
8.20143e-05
-0.000109594
-0.00011416
8.37785e-05
6.67035e-07
-9.93906e-07
2.09646e-06
-3.82178e-06
4.1343e-06
-6.55654e-06
6.75364e-06
-9.55691e-06
9.93524e-06
-1.29254e-05
1.36251e-05
-1.66503e-05
1.77119e-05
-2.06487e-05
2.20148e-05
-2.47847e-05
2.62845e-05
-2.88673e-05
3.02646e-05
-3.27083e-05
3.37928e-05
-3.62077e-05
3.68263e-05
-3.93657e-05
3.94292e-05
-4.22572e-05
4.17119e-05
-4.49815e-05
4.37716e-05
-4.76213e-05
4.56794e-05
-5.02342e-05
4.74836e-05
-5.28581e-05
4.92168e-05
-5.55186e-05
5.09016e-05
-5.82348e-05
5.25544e-05
-6.10211e-05
5.41871e-05
-6.38882e-05
5.58085e-05
-6.68452e-05
5.74248e-05
-6.98992e-05
5.904e-05
-7.30558e-05
6.06561e-05
-7.632e-05
6.22741e-05
-7.96962e-05
6.38942e-05
-8.31884e-05
6.55165e-05
-8.68006e-05
6.71403e-05
-9.05369e-05
6.87651e-05
-9.4401e-05
7.03903e-05
-9.83969e-05
7.2015e-05
-0.000102529
7.36386e-05
-0.000106801
7.52608e-05
-0.000111217
-0.000115781
7.68811e-05
8.0401e-07
-1.79792e-06
2.43304e-06
-5.4508e-06
4.68789e-06
-8.8114e-06
7.50475e-06
-1.23738e-05
1.08134e-05
-1.6234e-05
1.44945e-05
-2.03314e-05
1.83643e-05
-2.45185e-05
2.2193e-05
-2.86134e-05
2.57475e-05
-3.24217e-05
2.88871e-05
-3.58479e-05
3.15867e-05
-3.89073e-05
3.39141e-05
-4.16931e-05
3.59712e-05
-4.43144e-05
3.78446e-05
-4.68549e-05
3.9594e-05
-4.93707e-05
4.12585e-05
-5.18987e-05
4.28649e-05
-5.44645e-05
4.44323e-05
-5.7086e-05
4.59745e-05
-5.9777e-05
4.75013e-05
-6.25478e-05
4.90196e-05
-6.54065e-05
5.05335e-05
-6.83592e-05
5.20453e-05
-7.14111e-05
5.35564e-05
-7.45669e-05
5.5067e-05
-7.78306e-05
5.65771e-05
-8.12063e-05
5.80862e-05
-8.46976e-05
5.9594e-05
-8.83083e-05
6.10994e-05
-9.20423e-05
6.26016e-05
-9.59032e-05
6.40997e-05
-9.9895e-05
6.55929e-05
-0.000104022
6.70804e-05
-0.000108288
6.85616e-05
-0.000112698
-0.000117255
7.00362e-05
9.53702e-07
-2.75162e-06
2.68912e-06
-7.18622e-06
5.02308e-06
-1.11454e-05
7.86401e-06
-1.52147e-05
1.10932e-05
-1.94632e-05
1.45326e-05
-2.37707e-05
1.79687e-05
-2.79547e-05
2.11806e-05
-3.18253e-05
2.40234e-05
-3.52645e-05
2.64696e-05
-3.82941e-05
2.85851e-05
-4.10229e-05
3.04638e-05
-4.35717e-05
3.21828e-05
-4.60335e-05
3.37947e-05
-4.84667e-05
3.53338e-05
-5.09098e-05
3.68239e-05
-5.33889e-05
3.82818e-05
-5.59223e-05
3.97192e-05
-5.85234e-05
4.11443e-05
-6.1202e-05
4.25617e-05
-6.39653e-05
4.39745e-05
-6.68193e-05
4.53841e-05
-6.97687e-05
4.67912e-05
-7.28182e-05
4.81958e-05
-7.59715e-05
4.95977e-05
-7.92325e-05
5.09961e-05
-8.26047e-05
5.23904e-05
-8.60918e-05
5.37794e-05
-8.96974e-05
5.51622e-05
-9.3425e-05
5.65375e-05
-9.72785e-05
5.79045e-05
-0.000101262
5.92622e-05
-0.00010538
6.06097e-05
-0.000109636
6.19463e-05
-0.000114034
-0.00011858
6.32716e-05
9.76768e-07
-3.72839e-06
2.71921e-06
-8.92867e-06
5.02819e-06
-1.34543e-05
7.76958e-06
-1.79561e-05
1.07723e-05
-2.24659e-05
1.38382e-05
-2.68367e-05
1.676e-05
-3.08764e-05
1.93706e-05
-3.44359e-05
2.16228e-05
-3.75167e-05
2.35694e-05
-4.02407e-05
2.52983e-05
-4.27517e-05
2.68826e-05
-4.5156e-05
2.83697e-05
-4.75206e-05
2.97917e-05
-4.98887e-05
3.11706e-05
-5.22888e-05
3.2522e-05
-5.47402e-05
3.3856e-05
-5.72563e-05
3.51788e-05
-5.98462e-05
3.64941e-05
-6.25173e-05
3.78041e-05
-6.52753e-05
3.91097e-05
-6.81249e-05
4.04113e-05
-7.10704e-05
4.17087e-05
-7.41156e-05
4.30014e-05
-7.72642e-05
4.42885e-05
-8.05196e-05
4.55691e-05
-8.38853e-05
4.6842e-05
-8.73648e-05
4.81061e-05
-9.09614e-05
4.936e-05
-9.46789e-05
5.06026e-05
-9.85211e-05
5.18328e-05
-0.000102492
5.30495e-05
-0.000106596
5.42519e-05
-0.000110838
5.54391e-05
-0.000115222
5.66104e-05
-0.000119752
-1.42499e-07
-9.50983e-07
1.09348e-06
-3.98861e-07
-1.46797e-06
1.72433e-06
-7.0066e-07
-1.66578e-06
1.96758e-06
-1.0291e-06
-1.78712e-06
2.11556e-06
-1.37781e-06
-1.88234e-06
2.23106e-06
-1.74402e-06
-1.96596e-06
2.33216e-06
-2.12628e-06
-2.04361e-06
2.42588e-06
-2.52381e-06
-2.11799e-06
2.51551e-06
-2.9361e-06
-2.19056e-06
2.60286e-06
-3.36289e-06
-2.26221e-06
2.68899e-06
-3.80398e-06
-2.3335e-06
2.77459e-06
-4.25929e-06
-2.40482e-06
2.86014e-06
-4.72879e-06
-2.47645e-06
2.94595e-06
-5.21249e-06
-2.54857e-06
3.03227e-06
-5.71045e-06
-2.62132e-06
3.11928e-06
-6.22273e-06
-2.69479e-06
3.20708e-06
-6.74947e-06
-2.76902e-06
3.29576e-06
-7.2908e-06
-2.84399e-06
3.38532e-06
-7.84691e-06
-2.91964e-06
3.47575e-06
-8.41802e-06
-2.99586e-06
3.56697e-06
-9.00438e-06
-3.0725e-06
3.65886e-06
-9.60633e-06
-3.14932e-06
3.75126e-06
-1.02242e-05
-3.22605e-06
3.84394e-06
-1.08585e-05
-3.30233e-06
3.93664e-06
-1.15098e-05
-3.37777e-06
4.02903e-06
-1.21786e-05
-3.4519e-06
4.12075e-06
-1.28659e-05
-3.52417e-06
4.21141e-06
-1.35724e-05
-3.59402e-06
4.30054e-06
-1.42993e-05
-3.66075e-06
4.38766e-06
-1.50479e-05
-3.72367e-06
4.47226e-06
-1.58197e-05
-3.78202e-06
4.55385e-06
-1.66166e-05
-3.83494e-06
4.63185e-06
-1.74408e-05
-3.88148e-06
4.70563e-06
-1.82947e-05
-3.92061e-06
4.77452e-06
-3.95168e-06
4.83826e-06
-1.91813e-05
-1.69025e-07
-7.81958e-07
-4.53588e-07
-1.1834e-06
-7.83412e-07
-1.33596e-06
-1.14027e-06
-1.43026e-06
-1.51801e-06
-1.5046e-06
-1.91397e-06
-1.57e-06
-2.3268e-06
-1.63078e-06
-2.7558e-06
-1.689e-06
-3.20056e-06
-1.7458e-06
-3.66089e-06
-1.80188e-06
-4.13671e-06
-1.85768e-06
-4.62802e-06
-1.91352e-06
-5.13488e-06
-1.96958e-06
-5.65742e-06
-2.02603e-06
-6.19581e-06
-2.08293e-06
-6.75026e-06
-2.14035e-06
-7.32101e-06
-2.19826e-06
-7.90838e-06
-2.25662e-06
-8.51271e-06
-2.31531e-06
-9.1344e-06
-2.37417e-06
-9.77393e-06
-2.43297e-06
-1.04318e-05
-2.49142e-06
-1.11087e-05
-2.54916e-06
-1.18053e-05
-2.60573e-06
-1.25225e-05
-2.66062e-06
-1.32611e-05
-2.71323e-06
-1.40224e-05
-2.76287e-06
-1.48077e-05
-2.80877e-06
-1.56184e-05
-2.85009e-06
-1.64562e-05
-2.88585e-06
-1.73232e-05
-2.91504e-06
-1.82216e-05
-2.9365e-06
-1.91541e-05
-2.94897e-06
-2.01236e-05
-2.95111e-06
-2.94178e-06
-2.11335e-05
-1.89991e-07
-5.91967e-07
-4.9608e-07
-8.77316e-07
-8.47049e-07
-9.8499e-07
-1.22537e-06
-1.05194e-06
-1.6251e-06
-1.10487e-06
-2.04367e-06
-1.15143e-06
-2.47981e-06
-1.19464e-06
-2.93286e-06
-1.23595e-06
-3.40249e-06
-1.27617e-06
-3.88858e-06
-1.31579e-06
-4.39112e-06
-1.35514e-06
-4.91019e-06
-1.39444e-06
-5.44594e-06
-1.43383e-06
-5.99857e-06
-1.4734e-06
-6.56831e-06
-1.51319e-06
-7.15546e-06
-1.5532e-06
-7.76036e-06
-1.59336e-06
-8.38342e-06
-1.63356e-06
-9.02507e-06
-1.67366e-06
-9.68584e-06
-1.7134e-06
-1.03663e-05
-1.75249e-06
-1.10672e-05
-1.79056e-06
-1.17892e-05
-1.82714e-06
-1.25333e-05
-1.86168e-06
-1.33003e-05
-1.89354e-06
-1.40916e-05
-1.92197e-06
-1.49083e-05
-1.94613e-06
-1.5752e-05
-1.96508e-06
-1.66244e-05
-1.97775e-06
-1.75273e-05
-1.98296e-06
-1.84629e-05
-1.97941e-06
-1.94337e-05
-1.96571e-06
-2.04423e-05
-1.94033e-06
-2.14918e-05
-1.90162e-06
-1.84798e-06
-2.25856e-05
-2.10403e-07
-3.81564e-07
-5.31644e-07
-5.56075e-07
-8.96361e-07
-6.20273e-07
-1.2885e-06
-6.59806e-07
-1.70244e-06
-6.90921e-07
-2.13575e-06
-7.18125e-07
-2.58722e-06
-7.43167e-07
-3.05626e-06
-7.6691e-07
-3.54258e-06
-7.89844e-07
-4.04609e-06
-8.12276e-07
-4.56683e-06
-8.34405e-07
-5.10491e-06
-8.56361e-07
-5.66052e-06
-8.78226e-07
-6.23389e-06
-9.00035e-07
-6.8253e-06
-9.21778e-07
-7.4351e-06
-9.43401e-07
-8.06366e-06
-9.64798e-07
-8.71142e-06
-9.85804e-07
-9.37888e-06
-1.00619e-06
-1.00666e-05
-1.02567e-06
-1.07752e-05
-1.04385e-06
-1.15055e-05
-1.06028e-06
-1.22583e-05
-1.0744e-06
-1.30344e-05
-1.08556e-06
-1.38349e-05
-1.09298e-06
-1.46611e-05
-1.0958e-06
-1.55142e-05
-1.09302e-06
-1.63958e-05
-1.08353e-06
-1.73074e-05
-1.06608e-06
-1.82511e-05
-1.03929e-06
-1.92288e-05
-1.00166e-06
-2.0243e-05
-9.51563e-07
-2.1296e-05
-8.87285e-07
-2.23907e-05
-8.06965e-07
-7.08522e-07
-2.35302e-05
-2.21426e-07
-1.60138e-07
-5.52215e-07
-2.25286e-07
-9.24924e-07
-2.47563e-07
-1.32426e-06
-2.60469e-07
-1.74529e-06
-2.6989e-07
-2.18597e-06
-2.77451e-07
-2.64528e-06
-2.83856e-07
-3.1227e-06
-2.89487e-07
-3.61798e-06
-2.94567e-07
-4.13102e-06
-2.99234e-07
-4.66185e-06
-3.03578e-07
-5.21056e-06
-3.07646e-07
-5.77734e-06
-3.11451e-07
-6.3624e-06
-3.14973e-07
-6.96603e-06
-3.18148e-07
-7.58856e-06
-3.2087e-07
-8.23038e-06
-3.2298e-07
-8.89192e-06
-3.24258e-07
-9.5737e-06
-3.24418e-07
-1.02763e-05
-3.23098e-07
-1.10003e-05
-3.19852e-07
-1.17464e-05
-3.14141e-07
-1.25155e-05
-3.05324e-07
-1.33084e-05
-2.92653e-07
-1.41261e-05
-2.75261e-07
-1.49697e-05
-2.52163e-07
-1.58405e-05
-2.2224e-07
-1.67398e-05
-1.84246e-07
-1.76691e-05
-1.36795e-07
-1.863e-05
-7.8363e-08
-1.96244e-05
-7.2876e-09
-2.06542e-05
7.8195e-08
-2.17214e-05
1.79938e-07
-2.28283e-05
2.99928e-07
4.40636e-07
-2.39774e-05
-2.29329e-07
6.91915e-08
-5.61524e-07
1.06909e-07
-9.3341e-07
1.24323e-07
-1.33217e-06
1.38289e-07
-1.75329e-06
1.51229e-07
-2.19463e-06
1.63891e-07
-2.65506e-06
1.76579e-07
-3.13399e-06
1.89435e-07
-3.63107e-06
2.02521e-07
-4.14618e-06
2.15874e-07
-4.67929e-06
2.29529e-07
-5.23046e-06
2.43527e-07
-5.79984e-06
2.57927e-07
-6.38763e-06
2.72813e-07
-6.99408e-06
2.88305e-07
-7.61951e-06
3.04562e-07
-8.26429e-06
3.21795e-07
-8.92882e-06
3.40274e-07
-9.61358e-06
3.6034e-07
-1.03191e-05
3.8241e-07
-1.10459e-05
4.06988e-07
-1.17947e-05
4.34675e-07
-1.25662e-05
4.66176e-07
-1.33612e-05
5.02308e-07
-1.41805e-05
5.4401e-07
-1.5025e-05
5.92345e-07
-1.58957e-05
6.4851e-07
-1.67938e-05
7.13835e-07
-1.77204e-05
7.89794e-07
-1.86768e-05
8.7799e-07
-1.96642e-05
9.80161e-07
-2.06841e-05
1.09814e-06
-2.17381e-05
1.23384e-06
-2.28274e-05
1.3893e-06
1.56722e-06
-2.3954e-05
-2.22131e-07
2.91322e-07
-5.48548e-07
4.33325e-07
-9.17116e-07
4.92891e-07
-1.31268e-06
5.33852e-07
-1.73024e-06
5.68786e-07
-2.1676e-06
6.0125e-07
-2.62366e-06
6.32639e-07
-3.09784e-06
6.63615e-07
-3.58985e-06
6.94532e-07
-4.09958e-06
7.25603e-07
-4.62703e-06
7.5698e-07
-5.17229e-06
7.88785e-07
-5.7355e-06
8.21142e-07
-6.31688e-06
8.54188e-07
-6.91665e-06
8.88085e-07
-7.53513e-06
9.23037e-07
-8.17263e-06
9.59294e-07
-8.82952e-06
9.97166e-07
-9.50621e-06
1.03703e-06
-1.02032e-05
1.07935e-06
-1.09208e-05
1.12467e-06
-1.16598e-05
1.17362e-06
-1.24206e-05
1.22696e-06
-1.32038e-05
1.28553e-06
-1.40101e-05
1.35031e-06
-1.48401e-05
1.4224e-06
-1.56946e-05
1.50302e-06
-1.65743e-05
1.59353e-06
-1.748e-05
1.69542e-06
-1.84123e-05
1.8103e-06
-1.9372e-05
1.93988e-06
-2.03598e-05
2.08598e-06
-2.13765e-05
2.2505e-06
-2.24226e-05
2.43539e-06
2.64369e-06
-2.3499e-05
-2.09246e-07
5.00568e-07
-5.27825e-07
7.51905e-07
-8.88276e-07
8.53342e-07
-1.27521e-06
9.20787e-07
-1.68341e-06
9.7698e-07
-2.11063e-06
1.02848e-06
-2.55582e-06
1.07782e-06
-3.01843e-06
1.12623e-06
-3.49824e-06
1.17434e-06
-3.99516e-06
1.22253e-06
-4.50924e-06
1.27106e-06
-5.04057e-06
1.32012e-06
-5.58933e-06
1.3699e-06
-6.1557e-06
1.42055e-06
-6.7399e-06
1.47229e-06
-7.34221e-06
1.52534e-06
-7.96289e-06
1.57997e-06
-8.60225e-06
1.63653e-06
-9.26063e-06
1.69541e-06
-9.93836e-06
1.75709e-06
-1.06358e-05
1.82213e-06
-1.13534e-05
1.89119e-06
-1.20914e-05
1.96501e-06
-1.28504e-05
2.04447e-06
-1.36306e-05
2.13052e-06
-1.44325e-05
2.22427e-06
-1.52564e-05
2.32691e-06
-1.61026e-05
2.43976e-06
-1.69714e-05
2.56426e-06
-1.78631e-05
2.70192e-06
-1.87775e-05
2.85437e-06
-1.97148e-05
3.02325e-06
-2.06746e-05
3.21032e-06
-2.16568e-05
3.41753e-06
3.64728e-06
-2.26604e-05
-1.92016e-07
6.92584e-07
-4.94282e-07
1.05417e-06
-8.39599e-07
1.19866e-06
-1.21154e-06
1.29273e-06
-1.60443e-06
1.36988e-06
-2.01584e-06
1.43988e-06
-2.44454e-06
1.50653e-06
-2.88996e-06
1.57165e-06
-3.3518e-06
1.63617e-06
-3.82995e-06
1.70068e-06
-4.32444e-06
1.76554e-06
-4.83534e-06
1.83102e-06
-5.36279e-06
1.89735e-06
-5.90696e-06
1.96473e-06
-6.46806e-06
2.03339e-06
-7.0463e-06
2.10358e-06
-7.64191e-06
2.17558e-06
-8.25513e-06
2.24975e-06
-8.8862e-06
2.32648e-06
-9.53535e-06
2.40624e-06
-1.02028e-05
2.4896e-06
-1.08888e-05
2.57718e-06
-1.15935e-05
2.66973e-06
-1.23172e-05
2.76807e-06
-1.30598e-05
2.87314e-06
-1.38215e-05
2.98596e-06
-1.46022e-05
3.10766e-06
-1.54019e-05
3.23948e-06
-1.62204e-05
3.38273e-06
-1.70572e-05
3.53877e-06
-1.79119e-05
3.70904e-06
-1.87836e-05
3.89492e-06
-1.9671e-05
4.09774e-06
-2.05721e-05
4.3186e-06
4.56036e-06
-2.14852e-05
-1.69913e-07
8.62498e-07
-4.51862e-07
1.33612e-06
-7.775e-07
1.5243e-06
-1.12937e-06
1.6446e-06
-1.50156e-06
1.74207e-06
-1.89152e-06
1.82983e-06
-2.29799e-06
1.913e-06
-2.72031e-06
1.99397e-06
-3.15816e-06
2.07403e-06
-3.6114e-06
2.15392e-06
-4.08001e-06
2.23415e-06
-4.56402e-06
2.31504e-06
-5.06356e-06
2.39688e-06
-5.57874e-06
2.47991e-06
-6.10972e-06
2.56437e-06
-6.65666e-06
2.65052e-06
-7.21972e-06
2.73864e-06
-7.79904e-06
2.82908e-06
-8.39477e-06
2.92221e-06
-9.007e-06
3.01848e-06
-9.63582e-06
3.11842e-06
-1.02813e-05
3.22262e-06
-1.09433e-05
3.33176e-06
-1.16218e-05
3.4466e-06
-1.23166e-05
3.56798e-06
-1.30275e-05
3.69684e-06
-1.3754e-05
3.83417e-06
-1.44956e-05
3.98107e-06
-1.52515e-05
4.13864e-06
-1.60208e-05
4.30803e-06
-1.68021e-05
4.49039e-06
-1.7594e-05
4.68678e-06
-1.83942e-05
4.89799e-06
-1.92003e-05
5.12467e-06
5.36889e-06
-2.00089e-05
-1.47611e-07
1.01011e-06
-4.05278e-07
1.59379e-06
-7.0644e-07
1.82546e-06
-1.03312e-06
1.97128e-06
-1.37929e-06
2.08824e-06
-1.74236e-06
2.19291e-06
-2.12106e-06
2.29169e-06
-2.51469e-06
2.3876e-06
-2.92289e-06
2.48223e-06
-3.34549e-06
2.57652e-06
-3.78242e-06
2.67107e-06
-4.23368e-06
2.7663e-06
-4.69933e-06
2.86253e-06
-5.17943e-06
2.96001e-06
-5.67408e-06
3.05901e-06
-6.18334e-06
3.15978e-06
-6.70729e-06
3.26259e-06
-7.24598e-06
3.36776e-06
-7.7994e-06
3.47563e-06
-8.36752e-06
3.5866e-06