/*--------------------------------*- C++ -*----------------------------------*\
| =========                 |                                                 |
| \\      /  F ield         | OpenFOAM: The Open Source CFD Toolbox           |
|  \\    /   O peration     | Version:  v2012                                 |
|   \\  /    A nd           | Website:  www.openfoam.com                      |
|    \\/     M anipulation  |                                                 |
\*---------------------------------------------------------------------------*/
FoamFile
{
    version     2.0;
    format      ascii;
    class       volVectorField;
    location    "1";
    object      U;
}
// * * * * * * * * * * * * * * * * * * * * * * * * * * * * * * * * * * * * * //

dimensions      [0 1 -1 0 0 0 0];


internalField   nonuniform List<vector> 
76776
(
(-0.0116251 -1.23836e-07 0.0112444)
(-0.0240108 -7.85297e-08 0.0234811)
(-0.0293077 -4.48419e-08 0.0288925)
(-0.0318006 -2.95856e-08 0.0316296)
(-0.0331362 -2.20532e-08 0.0332873)
(-0.0338831 -1.79054e-08 0.0344011)
(-0.0342748 -1.54049e-08 0.0351877)
(-0.0344222 -1.3752e-08 0.0357516)
(-0.034383 -1.25945e-08 0.0361491)
(-0.0341891 -1.17979e-08 0.0364128)
(-0.033858 -1.12593e-08 0.0365631)
(-0.0333978 -1.09198e-08 0.0366131)
(-0.0328104 -1.07171e-08 0.0365711)
(-0.0320931 -1.0642e-08 0.0364428)
(-0.0312393 -1.06628e-08 0.0362321)
(-0.0302385 -1.07688e-08 0.0359422)
(-0.0290752 -1.09742e-08 0.0355751)
(-0.0277279 -1.12807e-08 0.035132)
(-0.0261684 -1.16924e-08 0.0346137)
(-0.0243602 -1.22191e-08 0.0340213)
(-0.0222573 -1.28638e-08 0.0333562)
(-0.0198022 -1.36487e-08 0.0326209)
(-0.016923 -1.45685e-08 0.0318199)
(-0.0135301 -1.56305e-08 0.0309596)
(-0.00951018 -1.68357e-08 0.0300495)
(-0.00472461 -1.82068e-08 0.0291032)
(0.000999882 -1.96828e-08 0.0281391)
(0.00785844 -2.12673e-08 0.027183)
(0.0160975 -2.28992e-08 0.026265)
(0.0259163 -2.45437e-08 0.025435)
(0.0375875 -2.61341e-08 0.0247675)
(0.0511685 -2.59285e-08 0.0243508)
(0.0672508 -2.94391e-08 0.024318)
(0.0854511 -3.32844e-08 0.0244175)
(0.103845 0 0.0213704)
(-0.0116963 -1.14048e-07 0.0104739)
(-0.0241906 -7.66151e-08 0.021857)
(-0.0295747 -4.35918e-08 0.0268368)
(-0.0321446 -2.8662e-08 0.0293287)
(-0.0335562 -2.13508e-08 0.0308215)
(-0.0343758 -1.73697e-08 0.0318124)
(-0.0348332 -1.49843e-08 0.0325009)
(-0.0350361 -1.34342e-08 0.0329817)
(-0.035039 -1.23654e-08 0.0333054)
(-0.0348704 -1.16516e-08 0.033501)
(-0.0345442 -1.11925e-08 0.0335852)
(-0.0340646 -1.09174e-08 0.0335692)
(-0.0334297 -1.07928e-08 0.0334601)
(-0.0326313 -1.07935e-08 0.0332631)
(-0.0316546 -1.09172e-08 0.0329809)
(-0.0304768 -1.11589e-08 0.0326152)
(-0.0290674 -1.15114e-08 0.0321663)
(-0.0273867 -1.20009e-08 0.0316345)
(-0.0253845 -1.25942e-08 0.0310202)
(-0.0229982 -1.33143e-08 0.0303249)
(-0.0201497 -1.41602e-08 0.0295509)
(-0.0167405 -1.51417e-08 0.0287022)
(-0.0126481 -1.62408e-08 0.0277842)
(-0.00771989 -1.74493e-08 0.0268045)
(-0.00177363 -1.87416e-08 0.0257738)
(0.00541005 -2.0087e-08 0.0247037)
(0.0140643 -2.14162e-08 0.023609)
(0.0244556 -2.26893e-08 0.022514)
(0.0367305 -2.38462e-08 0.0214674)
(0.0511969 -2.48887e-08 0.0205308)
(0.067727 -2.58192e-08 0.0197719)
(0.0870343 -2.67521e-08 0.0193044)
(0.1082 -2.80954e-08 0.0193547)
(0.132621 -3.09987e-08 0.0202149)
(0.154313 -2.97273e-08 0.0186925)
(-0.0121122 -1.09349e-07 0.0101117)
(-0.024973 -7.69833e-08 0.020735)
(-0.0303771 -4.17522e-08 0.0252688)
(-0.0329814 -2.72094e-08 0.027454)
(-0.0344367 -2.02998e-08 0.0287198)
(-0.0352998 -1.65685e-08 0.0295287)
(-0.0357937 -1.4341e-08 0.0300619)
(-0.0360204 -1.29447e-08 0.030404)
(-0.0360296 -1.20071e-08 0.0305996)
(-0.0358447 -1.13967e-08 0.0306741)
(-0.0354741 -1.1051e-08 0.0306431)
(-0.0349149 -1.0884e-08 0.0305162)
(-0.0341544 -1.09086e-08 0.0302986)
(-0.0331697 -1.10601e-08 0.0299933)
(-0.0319285 -1.1347e-08 0.0296009)
(-0.0303883 -1.17621e-08 0.0291215)
(-0.0284961 -1.22801e-08 0.0285561)
(-0.0261855 -1.29366e-08 0.0279065)
(-0.0233733 -1.36824e-08 0.0271754)
(-0.0199548 -1.45535e-08 0.0263662)
(-0.0157989 -1.55246e-08 0.0254834)
(-0.0107458 -1.65678e-08 0.0245333)
(-0.00460326 -1.76608e-08 0.0235241)
(0.00284512 -1.87752e-08 0.0224663)
(0.0118481 -1.98395e-08 0.0213708)
(0.0226169 -2.0858e-08 0.0202648)
(0.0353646 -2.17619e-08 0.0191908)
(0.050173 -2.25624e-08 0.0182067)
(0.067353 -2.32331e-08 0.0173603)
(0.0866704 -2.3927e-08 0.0167054)
(0.108921 -2.46464e-08 0.0164027)
(0.132853 -2.55788e-08 0.0163237)
(0.160983 -2.65869e-08 0.0166483)
(0.189947 -2.84355e-08 0.018351)
(0.216618 -2.62685e-08 0.0181622)
(-0.0129974 -1.09698e-07 0.0100317)
(-0.0263081 -6.78264e-08 0.0201704)
(-0.031808 -3.93182e-08 0.0242426)
(-0.0343939 -2.55897e-08 0.0261005)
(-0.0358255 -1.91039e-08 0.0271021)
(-0.0366636 -1.56449e-08 0.0276851)
(-0.037123 -1.36154e-08 0.0280181)
(-0.0372963 -1.24206e-08 0.0281785)
(-0.0372249 -1.16675e-08 0.0282068)
(-0.036922 -1.12211e-08 0.0281231)
(-0.0363827 -1.10454e-08 0.0279413)
(-0.0355879 -1.10513e-08 0.0276681)
(-0.0345061 -1.12326e-08 0.027306)
(-0.0330939 -1.15303e-08 0.0268561)
(-0.0312972 -1.1953e-08 0.026322)
(-0.0290476 -1.25065e-08 0.0257066)
(-0.0262573 -1.3148e-08 0.0250123)
(-0.0228145 -1.3893e-08 0.0242421)
(-0.0185809 -1.47172e-08 0.0233995)
(-0.0133892 -1.55866e-08 0.0224899)
(-0.00704494 -1.64886e-08 0.0215219)
(0.000672234 -1.73795e-08 0.0205056)
(0.00999461 -1.82314e-08 0.0194542)
(0.0211395 -1.90194e-08 0.0183958)
(0.0342464 -1.97054e-08 0.0173775)
(0.0495102 -2.03388e-08 0.0164538)
(0.0669756 -2.08698e-08 0.0156812)
(0.0869135 -2.14444e-08 0.0151152)
(0.109143 -2.20494e-08 0.0148572)
(0.13434 -2.28125e-08 0.0148455)
(0.161372 -2.36242e-08 0.0151181)
(0.19226 -2.37235e-08 0.0160471)
(0.223734 -2.35977e-08 0.0171928)
(0.259446 -2.47354e-08 0.0198083)
(0.286663 -2.19794e-08 0.0205921)
(-0.0141974 -1.04399e-07 0.0101573)
(-0.0281899 -6.4101e-08 0.0199422)
(-0.0337602 -3.66175e-08 0.0236542)
(-0.0362803 -2.39973e-08 0.0252055)
(-0.0376062 -1.80128e-08 0.0259442)
(-0.0383155 -1.48393e-08 0.0262923)
(-0.0386164 -1.30887e-08 0.0264125)
(-0.0385945 -1.21107e-08 0.0263759)
(-0.0382732 -1.15062e-08 0.0262183)
(-0.0376505 -1.1241e-08 0.0259577)
(-0.036703 -1.1189e-08 0.025602)
(-0.035391 -1.13204e-08 0.0251582)
(-0.0336634 -1.16092e-08 0.024633)
(-0.0314515 -1.20256e-08 0.0240317)
(-0.0286616 -1.25358e-08 0.0233555)
(-0.0251752 -1.31464e-08 0.0226065)
(-0.0208473 -1.38114e-08 0.0217878)
(-0.0155077 -1.45091e-08 0.0209055)
(-0.00896039 -1.52475e-08 0.019969)
(-0.000994204 -1.59443e-08 0.0189908)
(0.00862176 -1.66162e-08 0.0179851)
(0.020069 -1.72209e-08 0.0169864)
(0.0335128 -1.77708e-08 0.016038)
(0.0490683 -1.82747e-08 0.0152024)
(0.0669274 -1.87683e-08 0.0145297)
(0.0870942 -1.92309e-08 0.0140547)
(0.109979 -1.96986e-08 0.0138943)
(0.135078 -2.04656e-08 0.0140241)
(0.163152 -2.0921e-08 0.0145008)
(0.193312 -2.11323e-08 0.0155765)
(0.226418 -2.10259e-08 0.0171228)
(0.260704 -2.07709e-08 0.0188164)
(0.296126 -2.04778e-08 0.0211246)
(0.33147 -1.94042e-08 0.0247048)
(0.358041 -1.64549e-08 0.0262853)
(-0.0156366 -9.92871e-08 0.0103642)
(-0.0304131 -6.04122e-08 0.0198877)
(-0.0360182 -3.44209e-08 0.0232924)
(-0.0383747 -2.25975e-08 0.0245743)
(-0.0394695 -1.70969e-08 0.0250768)
(-0.0398912 -1.42623e-08 0.0252171)
(-0.0398452 -1.27445e-08 0.0251327)
(-0.0394007 -1.18821e-08 0.0249032)
(-0.0385731 -1.13857e-08 0.0245587)
(-0.0373423 -1.1242e-08 0.0241195)
(-0.0356663 -1.12943e-08 0.0235981)
(-0.0334735 -1.15243e-08 0.0229987)
(-0.0306656 -1.1886e-08 0.0223233)
(-0.0271199 -1.23365e-08 0.0215747)
(-0.0226898 -1.28419e-08 0.0207576)
(-0.0172046 -1.34028e-08 0.0198793)
(-0.0104742 -1.39643e-08 0.0189512)
(-0.00229057 -1.45118e-08 0.0179864)
(0.0075569 -1.50383e-08 0.0170044)
(0.0192607 -1.55143e-08 0.0160378)
(0.0329356 -1.59649e-08 0.0151404)
(0.0487803 -1.63599e-08 0.0143585)
(0.0668327 -1.68329e-08 0.0137679)
(0.0874037 -1.72027e-08 0.0133522)
(0.110429 -1.7689e-08 0.0132844)
(0.136076 -1.82166e-08 0.0135492)
(0.164082 -1.85726e-08 0.0141583)
(0.195144 -1.87613e-08 0.0154277)
(0.227941 -1.86789e-08 0.0171268)
(0.263017 -1.8634e-08 0.0190379)
(0.298805 -1.8292e-08 0.0217532)
(0.333427 -1.72246e-08 0.024693)
(0.365493 -1.56538e-08 0.0275572)
(0.395316 -1.50816e-08 0.0315277)
(0.41707 -1.36738e-08 0.0340101)
(-0.0172083 -9.37683e-08 0.0105407)
(-0.0326997 -5.68483e-08 0.0197671)
(-0.0382192 -3.21707e-08 0.0228706)
(-0.0402507 -2.12282e-08 0.023908)
(-0.040922 -1.62071e-08 0.0242295)
(-0.0408382 -1.37476e-08 0.0241699)
(-0.0402009 -1.22839e-08 0.0239155)
(-0.0390853 -1.15229e-08 0.0235295)
(-0.0374731 -1.11792e-08 0.0230406)
(-0.0353017 -1.11274e-08 0.022458)
(-0.0324757 -1.12654e-08 0.0217896)
(-0.028875 -1.15276e-08 0.021042)
(-0.0243551 -1.18966e-08 0.0202224)
(-0.0187499 -1.22956e-08 0.0193398)
(-0.0118735 -1.27061e-08 0.0184072)
(-0.00353034 -1.31423e-08 0.0174406)
(0.00649377 -1.35417e-08 0.0164606)
(0.0183612 -1.39245e-08 0.0155039)
(0.0322433 -1.42893e-08 0.0146181)
(0.0482299 -1.46886e-08 0.0138628)
(0.0665739 -1.49421e-08 0.0132898)
(0.0872268 -1.54118e-08 0.0129439)
(0.110663 -1.58651e-08 0.0129053)
(0.136324 -1.61889e-08 0.0132777)
(0.164905 -1.6435e-08 0.0139858)
(0.195955 -1.67243e-08 0.0153652)
(0.229468 -1.66966e-08 0.0172215)
(0.264491 -1.66366e-08 0.0193175)
(0.300615 -1.64689e-08 0.022174)
(0.335503 -1.59928e-08 0.0252948)
(0.367951 -1.46164e-08 0.0286144)
(0.396789 -1.37017e-08 0.0322931)
(0.421525 -1.29803e-08 0.0357684)
(0.441779 -1.27698e-08 0.0391153)
(0.456219 -1.21452e-08 0.0410966)
(-0.0188906 -8.78178e-08 0.0106454)
(-0.0348103 -5.13784e-08 0.0194181)
(-0.0398989 -2.9653e-08 0.022162)
(-0.0413386 -1.9691e-08 0.0229245)
(-0.0413583 -1.51832e-08 0.0230389)
(-0.0405684 -1.28285e-08 0.0228785)
(-0.0391388 -1.16111e-08 0.0225071)
(-0.0370602 -1.10487e-08 0.0220038)
(-0.0342699 -1.08503e-08 0.0213895)
(-0.0306638 -1.08703e-08 0.0206781)
(-0.0261068 -1.10377e-08 0.0198813)
(-0.0204394 -1.12587e-08 0.0190117)
(-0.0134846 -1.15513e-08 0.0180849)
(-0.00504919 -1.18598e-08 0.0171201)
(0.00506442 -1.21619e-08 0.0161412)
(0.017043 -1.24621e-08 0.0151848)
(0.0310075 -1.27786e-08 0.0143014)
(0.0471681 -1.30695e-08 0.0135467)
(0.0655514 -1.33751e-08 0.0129814)
(0.0865671 -1.37869e-08 0.0126478)
(0.10989 -1.4092e-08 0.0126383)
(0.136101 -1.44925e-08 0.0130538)
(0.164653 -1.47257e-08 0.0138927)
(0.196319 -1.48956e-08 0.0152973)
(0.229856 -1.49143e-08 0.0172848)
(0.265365 -1.49597e-08 0.0195253)
(0.301586 -1.48739e-08 0.022582)
(0.336723 -1.4856e-08 0.0259209)
(0.369424 -1.35753e-08 0.02942)
(0.398363 -1.28116e-08 0.0331876)
(0.422651 -1.22804e-08 0.0367151)
(0.442272 -1.18689e-08 0.0399084)
(0.457907 -1.16063e-08 0.0426032)
(0.470555 -1.14406e-08 0.0452308)
(0.479717 -1.11827e-08 0.0468114)
(-0.0205741 -8.0975e-08 0.0106435)
(-0.0362668 -4.51417e-08 0.0186939)
(-0.0405469 -2.62555e-08 0.0209159)
(-0.0411822 -1.7686e-08 0.0214616)
(-0.0403811 -1.36802e-08 0.0214575)
(-0.0386306 -1.18106e-08 0.0211564)
(-0.0360371 -1.09166e-08 0.0206806)
(-0.0325545 -1.05131e-08 0.0200712)
(-0.0280752 -1.03796e-08 0.0193501)
(-0.0224554 -1.04074e-08 0.0185356)
(-0.0155261 -1.05315e-08 0.0176477)
(-0.00710339 -1.07162e-08 0.0167095)
(0.00301318 -1.09316e-08 0.0157484)
(0.014998 -1.11639e-08 0.0148038)
(0.0290165 -1.14038e-08 0.013928)
(0.0451905 -1.16613e-08 0.013179)
(0.0637456 -1.19295e-08 0.0126214)
(0.0847223 -1.22698e-08 0.0122964)
(0.108463 -1.25581e-08 0.0123341)
(0.13458 -1.27957e-08 0.012767)
(0.163756 -1.30758e-08 0.0136544)
(0.195306 -1.32663e-08 0.0151263)
(0.229541 -1.32631e-08 0.0171639)
(0.265059 -1.34144e-08 0.0196438)
(0.301785 -1.33411e-08 0.0227764)
(0.33724 -1.34156e-08 0.0262357)
(0.370161 -1.26302e-08 0.0297914)
(0.399437 -1.19028e-08 0.033719)
(0.423712 -1.14313e-08 0.0374456)
(0.443094 -1.10921e-08 0.0408086)
(0.458271 -1.09052e-08 0.0436631)
(0.470371 -1.06281e-08 0.0460718)
(0.480172 -1.05993e-08 0.0480682)
(0.488057 -9.89349e-09 0.0497034)
(0.493999 -9.17639e-09 0.0507318)
(-0.0222656 -7.29952e-08 0.0104826)
(-0.0368927 -3.99286e-08 0.0174426)
(-0.0399139 -2.28605e-08 0.0191815)
(-0.0394845 -1.5324e-08 0.0194783)
(-0.037504 -1.23493e-08 0.0192957)
(-0.0343988 -1.08705e-08 0.0188835)
(-0.0301949 -1.01583e-08 0.0183093)
(-0.0247941 -9.85298e-09 0.0176083)
(-0.0180478 -9.76232e-09 0.0168081)
(-0.00977899 -9.78868e-09 0.0159368)
(0.000204503 -9.87975e-09 0.015026)
(0.0120958 -1.00248e-08 0.0141166)
(0.0260426 -1.02163e-08 0.0132635)
(0.0422244 -1.03858e-08 0.0125294)
(0.0607552 -1.06606e-08 0.0119769)
(0.0819032 -1.09635e-08 0.0116873)
(0.105581 -1.11768e-08 0.0117437)
(0.132151 -1.14633e-08 0.0122203)
(0.161338 -1.16623e-08 0.0131519)
(0.193537 -1.17592e-08 0.0147272)
(0.2277 -1.19927e-08 0.0168499)
(0.263993 -1.20297e-08 0.0195339)
(0.300895 -1.18896e-08 0.0227514)
(0.33683 -1.20965e-08 0.02639)
(0.370267 -1.18773e-08 0.0302602)
(0.39957 -1.14186e-08 0.0342981)
(0.424055 -1.07456e-08 0.0382062)
(0.443205 -9.74776e-09 0.0415225)
(0.458144 -8.97098e-09 0.0443495)
(0.46988 -8.54703e-09 0.0467927)
(0.47937 -8.21904e-09 0.0488199)
(0.487198 -7.73611e-09 0.050469)
(0.49369 -7.47e-09 0.0518098)
(0.499148 -7.21848e-09 0.0529988)
(0.503614 -6.99532e-09 0.0538276)
(-0.0236859 -6.47168e-08 0.0101575)
(-0.0362165 -3.48726e-08 0.0157817)
(-0.0375776 -1.93391e-08 0.0168486)
(-0.0356763 -1.36134e-08 0.0168972)
(-0.0321522 -1.11402e-08 0.0165682)
(-0.0272462 -9.97378e-09 0.0160451)
(-0.0209086 -9.40724e-09 0.0153856)
(-0.0129948 -9.1706e-09 0.0146268)
(-0.00332069 -9.10771e-09 0.0138053)
(0.00831113 -9.133e-09 0.0129639)
(0.0220675 -9.21941e-09 0.0121617)
(0.0381018 -9.33012e-09 0.0114636)
(0.0566018 -9.58507e-09 0.0109453)
(0.0776794 -9.78665e-09 0.0106724)
(0.101576 -1.00266e-08 0.0107718)
(0.128196 -1.02469e-08 0.0112692)
(0.157834 -1.03138e-08 0.0122662)
(0.190092 -1.05416e-08 0.0138855)
(0.224918 -1.06896e-08 0.0161295)
(0.26123 -1.06462e-08 0.0189008)
(0.298756 -1.07766e-08 0.0223166)
(0.335331 -1.08416e-08 0.0261252)
(0.369064 -1.07454e-08 0.0301199)
(0.398877 -1.0582e-08 0.03424)
(0.423441 -9.94273e-09 0.0382101)
(0.442811 -9.33841e-09 0.0416884)
(0.457731 -8.67338e-09 0.0447217)
(0.469411 -8.0862e-09 0.0473489)
(0.478743 -7.61138e-09 0.0494503)
(0.48646 -7.22581e-09 0.0511722)
(0.492977 -6.96237e-09 0.0526457)
(0.498511 -6.59136e-09 0.053898)
(0.503271 -6.2664e-09 0.0549853)
(0.507403 -6.0195e-09 0.0559742)
(0.510861 -5.77058e-09 0.056691)
(-0.0246601 -5.70201e-08 0.00950935)
(-0.0341982 -2.90344e-08 0.0137753)
(-0.0333173 -1.69358e-08 0.014185)
(-0.0295069 -1.21476e-08 0.0139248)
(-0.023898 -1.01346e-08 0.0134266)
(-0.0165902 -9.19823e-09 0.0127964)
(-0.00744886 -8.74664e-09 0.0120809)
(0.00372142 -8.56526e-09 0.0113232)
(0.0170993 -8.52879e-09 0.0105838)
(0.0328488 -8.56473e-09 0.00993332)
(0.0511452 -8.65247e-09 0.00944852)
(0.0721421 -8.89526e-09 0.00920814)
(0.0960024 -9.00429e-09 0.00931864)
(0.122818 -9.13716e-09 0.00985479)
(0.152554 -9.29458e-09 0.0108709)
(0.185314 -9.53296e-09 0.0125714)
(0.220255 -9.53088e-09 0.0148667)
(0.257216 -9.55834e-09 0.0178133)
(0.295088 -9.70298e-09 0.0213331)
(0.332266 -9.6705e-09 0.0252992)
(0.366938 -9.73654e-09 0.0295327)
(0.397218 -9.5117e-09 0.0338125)
(0.422327 -8.90995e-09 0.0379293)
(0.441974 -8.13427e-09 0.0415689)
(0.457069 -7.38616e-09 0.0446896)
(0.468786 -6.82577e-09 0.0473446)
(0.478162 -6.27021e-09 0.0495519)
(0.485871 -5.93335e-09 0.0514121)
(0.492356 -5.73583e-09 0.053026)
(0.497921 -5.41861e-09 0.0544309)
(0.502742 -5.24979e-09 0.055676)
(0.506956 -5.0798e-09 0.0567903)
(0.510662 -4.86746e-09 0.0577945)
(0.513927 -4.79734e-09 0.0587273)
(0.516718 -4.66513e-09 0.0594469)
(-0.0246588 -5.02832e-08 0.00861918)
(-0.0303185 -2.54756e-08 0.0113114)
(-0.0267451 -1.50464e-08 0.01121)
(-0.0204561 -1.09998e-08 0.0106698)
(-0.0121091 -9.34533e-09 0.0100255)
(-0.00164356 -8.56998e-09 0.00933589)
(0.0111328 -8.21157e-09 0.00864683)
(0.0263878 -8.08551e-09 0.00802855)
(0.0443139 -8.02258e-09 0.00755512)
(0.0650688 -8.21452e-09 0.00732726)
(0.0887973 -8.11112e-09 0.00742759)
(0.115575 -8.3935e-09 0.00797016)
(0.145482 -8.38368e-09 0.00901201)
(0.178455 -8.48187e-09 0.0106967)
(0.213919 -8.57404e-09 0.0130858)
(0.251094 -8.65721e-09 0.0160418)
(0.289681 -8.78047e-09 0.0197402)
(0.327786 -8.62381e-09 0.0238499)
(0.363224 -8.82288e-09 0.0282084)
(0.394632 -8.58484e-09 0.0326749)
(0.420491 -8.22042e-09 0.0370095)
(0.440653 -7.40036e-09 0.0408373)
(0.456076 -6.78172e-09 0.0441378)
(0.468015 -6.16774e-09 0.0469558)
(0.477515 -5.72657e-09 0.0493188)
(0.485312 -5.33844e-09 0.0513291)
(0.491869 -5.02645e-09 0.0530861)
(0.497486 -4.85525e-09 0.0546541)
(0.502365 -4.64289e-09 0.056068)
(0.506649 -4.4413e-09 0.0573555)
(0.510437 -4.30474e-09 0.0585317)
(0.513798 -4.15681e-09 0.0596112)
(0.516783 -4.03209e-09 0.0606062)
(0.519431 -3.91121e-09 0.061537)
(0.521707 -3.80066e-09 0.0622869)
(-0.0232947 -4.1855e-08 0.00747693)
(-0.0242537 -2.22528e-08 0.0085841)
(-0.0174518 -1.33182e-08 0.00801528)
(-0.0079314 -1.0084e-08 0.00727338)
(0.00401095 -8.72813e-09 0.00656432)
(0.0185487 -8.07308e-09 0.00593414)
(0.0358647 -7.7637e-09 0.00544248)
(0.0561762 -7.73979e-09 0.0051802)
(0.0795781 -7.66139e-09 0.00523777)
(0.106254 -7.69796e-09 0.00574033)
(0.13614 -7.58406e-09 0.00675651)
(0.169224 -7.77547e-09 0.0083835)
(0.205139 -7.85334e-09 0.0107774)
(0.242822 -7.7711e-09 0.0137948)
(0.28207 -7.83218e-09 0.0175463)
(0.321217 -7.84708e-09 0.0218281)
(0.357961 -7.88522e-09 0.0263736)
(0.390569 -7.68064e-09 0.0310825)
(0.417646 -7.19076e-09 0.035622)
(0.438689 -6.39545e-09 0.03964)
(0.454669 -5.72374e-09 0.0430663)
(0.467033 -5.22272e-09 0.0460386)
(0.476848 -4.95503e-09 0.0485811)
(0.484859 -4.6037e-09 0.0507848)
(0.491562 -4.39435e-09 0.0527318)
(0.497286 -4.1918e-09 0.0544878)
(0.502255 -4.03407e-09 0.056092)
(0.506616 -3.85307e-09 0.0575701)
(0.510474 -3.72853e-09 0.0589377)
(0.513905 -3.57735e-09 0.0602073)
(0.516964 -3.49121e-09 0.0613878)
(0.51969 -3.3244e-09 0.0624857)
(0.522115 -3.216e-09 0.0635082)
(0.524261 -3.08884e-09 0.0644675)
(0.526098 -3.0293e-09 0.0652629)
(-0.0206779 -3.5688e-08 0.00619102)
(-0.0157759 -2.01157e-08 0.00575312)
(-0.00471711 -1.21077e-08 0.00477775)
(0.00900206 -9.37789e-09 0.00393501)
(0.0255108 -8.2154e-09 0.00331425)
(0.0451059 -7.72485e-09 0.00294212)
(0.0679978 -7.35462e-09 0.00288322)
(0.0942975 -7.29535e-09 0.00326302)
(0.124039 -7.19569e-09 0.00418119)
(0.157087 -7.16171e-09 0.00569875)
(0.193288 -7.20558e-09 0.00799926)
(0.231677 -7.1414e-09 0.0110204)
(0.271569 -7.23219e-09 0.0147303)
(0.311945 -7.05801e-09 0.0191084)
(0.350247 -7.09829e-09 0.0238141)
(0.38458 -6.95024e-09 0.0287053)
(0.41335 -6.55029e-09 0.0334689)
(0.43588 -6.14203e-09 0.0377868)
(0.452953 -5.36674e-09 0.0415208)
(0.465986 -4.84947e-09 0.0447499)
(0.476258 -4.43345e-09 0.0475171)
(0.484591 -4.12801e-09 0.0499255)
(0.491518 -3.9103e-09 0.0520679)
(0.497399 -3.6775e-09 0.0540189)
(0.502481 -3.50331e-09 0.0558206)
(0.506929 -3.36916e-09 0.057496)
(0.510858 -3.24e-09 0.0590608)
(0.514349 -3.03585e-09 0.0605274)
(0.517465 -2.98066e-09 0.0619059)
(0.52025 -2.87084e-09 0.0632017)
(0.522736 -2.73455e-09 0.0644173)
(0.524948 -2.6098e-09 0.0655555)
(0.526903 -2.48117e-09 0.0666204)
(0.528611 -2.3909e-09 0.0676176)
(0.530049 -2.33795e-09 0.0684601)
(-0.0163477 -3.33203e-08 0.0045766)
(-0.0041406 -1.8006e-08 0.00306701)
(0.0122103 -1.11512e-08 0.00181238)
(0.0311378 -8.79586e-09 0.00103601)
(0.0532663 -7.71011e-09 0.000710976)
(0.0789824 -7.29796e-09 0.00084967)
(0.108317 -6.92966e-09 0.00153195)
(0.141263 -6.81677e-09 0.00284614)
(0.177591 -6.65827e-09 0.00491854)
(0.216617 -6.58747e-09 0.00781957)
(0.257259 -6.6217e-09 0.0114365)
(0.298898 -6.56981e-09 0.0158183)
(0.339333 -6.39514e-09 0.0206895)
(0.375939 -6.29442e-09 0.0257582)
(0.407138 -5.9985e-09 0.030796)
(0.431858 -5.3354e-09 0.035423)
(0.450562 -4.80695e-09 0.0394466)
(0.464725 -4.35543e-09 0.0429363)
(0.475726 -3.9252e-09 0.0459764)
(0.484538 -3.62431e-09 0.0486496)
(0.491785 -3.37196e-09 0.0510463)
(0.497886 -3.22609e-09 0.0532382)
(0.503121 -3.00142e-09 0.0552697)
(0.507675 -2.9088e-09 0.057164)
(0.511679 -2.73947e-09 0.058942)
(0.51523 -2.62788e-09 0.0606188)
(0.518395 -2.5442e-09 0.062204)
(0.521224 -2.38939e-09 0.0637047)
(0.523753 -2.28141e-09 0.065125)
(0.526006 -2.20841e-09 0.0664668)
(0.528006 -2.08616e-09 0.0677314)
(0.529768 -1.95573e-09 0.0689192)
(0.531301 -1.87965e-09 0.0700308)
(0.532608 -1.7317e-09 0.0710682)
(0.533674 -1.69579e-09 0.0719553)
(-0.00895637 -3.03164e-08 0.00267646)
(0.0113821 -1.58834e-08 0.000526396)
(0.033922 -1.02269e-08 -0.000748518)
(0.0590972 -7.98542e-09 -0.00121388)
(0.0879449 -7.30782e-09 -0.000933635)
(0.120531 -6.71159e-09 3.81787e-05)
(0.156807 -6.43399e-09 0.00176357)
(0.196319 -6.33652e-09 0.00437106)
(0.238039 -6.07897e-09 0.00779916)
(0.280957 -5.95644e-09 0.0120326)
(0.323712 -5.96913e-09 0.016946)
(0.363352 -5.85343e-09 0.0221858)
(0.39777 -5.46605e-09 0.02748)
(0.4257 -5.1313e-09 0.0324849)
(0.447042 -4.53249e-09 0.0369474)
(0.462994 -4.021e-09 0.0408143)
(0.475144 -3.64214e-09 0.044184)
(0.484692 -3.29156e-09 0.0471535)
(0.492415 -3.01384e-09 0.0498189)
(0.498829 -2.82412e-09 0.0522651)
(0.504266 -2.62531e-09 0.0545378)
(0.50895 -2.47456e-09 0.0566626)
(0.513041 -2.30585e-09 0.0586648)
(0.51665 -2.26299e-09 0.0605605)
(0.519855 -2.08904e-09 0.0623613)
(0.522711 -2.02446e-09 0.0640747)
(0.525264 -1.90848e-09 0.0657067)
(0.527545 -1.8348e-09 0.0672602)
(0.529573 -1.66494e-09 0.0687357)
(0.531365 -1.60352e-09 0.0701327)
(0.532931 -1.5343e-09 0.0714499)
(0.534277 -1.36497e-09 0.0726851)
(0.53541 -1.30882e-09 0.0738368)
(0.536331 -1.16444e-09 0.074905)
(0.53703 -1.07587e-09 0.0758237)
(0.000611862 -2.73224e-08 0.00106652)
(0.030812 -1.41917e-08 -0.00160336)
(0.0607923 -9.07621e-09 -0.00266825)
(0.0934252 -7.4321e-09 -0.00246763)
(0.129649 -6.6895e-09 -0.00125814)
(0.169427 -6.04723e-09 0.000885003)
(0.212069 -5.93189e-09 0.003967)
(0.256606 -5.7675e-09 0.00796264)
(0.301575 -5.51546e-09 0.0127544)
(0.34492 -5.23593e-09 0.0181126)
(0.383667 -5.17617e-09 0.0236811)
(0.415993 -4.72144e-09 0.0291025)
(0.441229 -4.3031e-09 0.0340527)
(0.460068 -3.71919e-09 0.0383722)
(0.474125 -3.33465e-09 0.0421419)
(0.484878 -2.97491e-09 0.0454792)
(0.493356 -2.72345e-09 0.0484716)
(0.500238 -2.47221e-09 0.0512078)
(0.505966 -2.28983e-09 0.0537445)
(0.510833 -2.13142e-09 0.056118)
(0.515035 -2.0197e-09 0.0583561)
(0.518708 -1.80481e-09 0.0604795)
(0.521946 -1.74899e-09 0.0625017)
(0.524821 -1.66415e-09 0.0644335)
(0.527386 -1.55676e-09 0.0662814)
(0.529676 -1.49964e-09 0.0680491)
(0.531712 -1.34107e-09 0.069738)
(0.533511 -1.29606e-09 0.0713469)
(0.535083 -1.13142e-09 0.0728741)
(0.536436 -1.11544e-09 0.0743167)
(0.537578 -9.79619e-10 0.0756715)
(0.538514 -8.56166e-10 0.0769352)
(0.539249 -7.4248e-10 0.0781061)
(0.539787 -6.58428e-10 0.0791836)
(0.540122 -4.95251e-10 0.0801121)
(0.0117365 -2.51009e-08 -0.000215955)
(0.0538819 -1.25071e-08 -0.00276008)
(0.0929813 -8.37649e-09 -0.00324529)
(0.1338 -6.93968e-09 -0.00205662)
(0.177472 -6.0055e-09 0.000380431)
(0.223612 -5.42747e-09 0.00391122)
(0.271062 -5.47306e-09 0.00840959)
(0.318007 -4.94932e-09 0.0136924)
(0.361982 -4.84793e-09 0.0194663)
(0.400154 -4.39935e-09 0.0252941)
(0.431053 -4.15527e-09 0.0308109)
(0.454578 -3.58355e-09 0.035767)
(0.471872 -3.22769e-09 0.0400968)
(0.484645 -2.78564e-09 0.0438785)
(0.494361 -2.52464e-09 0.0472394)
(0.502006 -2.13457e-09 0.0502932)
(0.508202 -2.05383e-09 0.0531147)
(0.513351 -1.80146e-09 0.0557461)
(0.51772 -1.68592e-09 0.0582255)
(0.521482 -1.52135e-09 0.0605782)
(0.524762 -1.46241e-09 0.0628215)
(0.527654 -1.32417e-09 0.064969)
(0.530219 -1.22002e-09 0.0670287)
(0.532498 -1.1434e-09 0.0690054)
(0.534517 -1.08898e-09 0.0709009)
(0.536295 -9.80857e-10 0.0727147)
(0.537844 -8.70909e-10 0.0744443)
(0.539175 -7.79091e-10 0.0760868)
(0.540295 -7.04496e-10 0.0776391)
(0.541212 -6.20163e-10 0.0790981)
(0.541931 -4.62316e-10 0.0804606)
(0.542459 -3.79019e-10 0.0817234)
(0.542801 -2.46024e-10 0.0828853)
(0.542961 -1.42782e-10 0.0839448)
(0.542936 3.94761e-11 0.0848577)
(0.0250417 -2.29422e-08 -0.000926975)
(0.0812583 -1.08468e-08 -0.00251689)
(0.129845 -7.6841e-09 -0.00194399)
(0.178594 -5.93225e-09 0.000520685)
(0.228866 -5.43217e-09 0.00440163)
(0.279693 -4.7348e-09 0.00935086)
(0.32898 -4.67414e-09 0.0150706)
(0.374284 -4.11953e-09 0.0212227)
(0.41296 -4.00208e-09 0.0273546)
(0.443602 -3.40776e-09 0.0330671)
(0.466376 -3.05543e-09 0.0381211)
(0.4828 -2.62833e-09 0.0424996)
(0.494763 -2.26552e-09 0.0463387)
(0.503763 -2.02293e-09 0.0497761)
(0.510775 -1.77604e-09 0.0529147)
(0.516414 -1.48892e-09 0.0558219)
(0.521069 -1.47451e-09 0.0585481)
(0.524987 -1.25187e-09 0.0611265)
(0.528343 -1.15462e-09 0.063582)
(0.531259 -1.03671e-09 0.0659323)
(0.533817 -9.55532e-10 0.0681886)
(0.536069 -8.75562e-10 0.0703575)
(0.538048 -7.71563e-10 0.0724416)
(0.539778 -6.93105e-10 0.0744409)
(0.541277 -6.11287e-10 0.0763543)
(0.542556 -5.2614e-10 0.0781789)
(0.543626 -4.37066e-10 0.0799118)
(0.544494 -3.20762e-10 0.0815502)
(0.545168 -2.61724e-10 0.0830906)
(0.545653 -1.52222e-10 0.08453)
(0.545955 4.64971e-12 0.0858651)
(0.54608 8.8723e-11 0.0870931)
(0.546033 1.82752e-10 0.0882131)
(0.54582 3.43768e-10 0.0892229)
(0.545442 5.21139e-10 0.090091)
(0.0415747 -2.01085e-08 -0.000613252)
(0.111527 -9.48838e-09 -0.000622878)
(0.169428 -6.26285e-09 0.00141909)
(0.225262 -4.80567e-09 0.00540816)
(0.280308 -4.61935e-09 0.010764)
(0.333067 -3.96909e-09 0.0169829)
(0.381025 -3.68621e-09 0.023613)
(0.421756 -3.26604e-09 0.0301805)
(0.453519 -3.0378e-09 0.0362075)
(0.476656 -2.47796e-09 0.0414821)
(0.49296 -2.12589e-09 0.04602)
(0.504552 -1.81979e-09 0.049954)
(0.513114 -1.5171e-09 0.0534697)
(0.519675 -1.37197e-09 0.0566831)
(0.524869 -1.16239e-09 0.0596611)
(0.529092 -9.89441e-10 0.0624562)
(0.532604 -9.13691e-10 0.0651047)
(0.535586 -7.78652e-10 0.0676332)
(0.538151 -6.89163e-10 0.0700581)
(0.540374 -6.04196e-10 0.072389)
(0.542302 -4.94088e-10 0.0746309)
(0.543968 -4.41289e-10 0.0767854)
(0.545395 -3.59808e-10 0.078852)
(0.5466 -2.76977e-10 0.0808293)
(0.547595 -1.67566e-10 0.0827146)
(0.54839 -1.01695e-10 0.0845049)
(0.548991 -3.00785e-11 0.0861971)
(0.549406 9.09114e-11 0.087788)
(0.54964 1.95164e-10 0.0892741)
(0.5497 2.64933e-10 0.0906525)
(0.549591 4.23635e-10 0.0919201)
(0.549321 5.07985e-10 0.0930748)
(0.548894 6.21951e-10 0.0941154)
(0.548316 7.63352e-10 0.09504)
(0.547592 9.58574e-10 0.0958306)
(0.0596846 -1.68724e-08 0.000585595)
(0.142259 -7.53739e-09 0.00291019)
(0.208581 -4.82873e-09 0.00683919)
(0.270396 -3.86761e-09 0.0125695)
(0.32871 -3.64076e-09 0.0194248)
(0.381299 -3.03898e-09 0.026717)
(0.425788 -2.6578e-09 0.0339002)
(0.460332 -2.27803e-09 0.0404808)
(0.485083 -1.98975e-09 0.0461408)
(0.502081 -1.62058e-09 0.0509014)
(0.513837 -1.31615e-09 0.0549817)
(0.522269 -1.07447e-09 0.0585941)
(0.52856 -8.79754e-10 0.0618703)
(0.533413 -7.67474e-10 0.0648921)
(0.537273 -6.31579e-10 0.067722)
(0.540431 -5.15526e-10 0.0704046)
(0.543069 -4.13304e-10 0.072966)
(0.545298 -3.52546e-10 0.0754224)
(0.547191 -2.62701e-10 0.077783)
(0.548796 -1.76815e-10 0.0800522)
(0.550147 -9.29408e-11 0.0822315)
(0.551266 -3.53768e-11 0.0843205)
(0.55217 5.05062e-11 0.0863177)
(0.552872 1.13941e-10 0.0882208)
(0.553381 2.28302e-10 0.0900265)
(0.553704 2.98655e-10 0.0917317)
(0.553849 3.7461e-10 0.0933335)
(0.553822 4.77694e-10 0.0948281)
(0.553628 5.85228e-10 0.0962127)
(0.553274 6.77474e-10 0.0974845)
(0.552767 7.96183e-10 0.0986409)
(0.552112 9.0121e-10 0.0996803)
(0.551318 1.03228e-09 0.100601)
(0.550389 1.15115e-09 0.101402)
(0.549331 1.36165e-09 0.102081)
(8.7193e-05 1.83751e-08 -0.0188976)
(-0.000535743 8.99667e-09 -0.028289)
(-0.00136552 4.5965e-09 -0.0309091)
(-0.00233321 2.88497e-09 -0.0318816)
(-0.00339518 2.05316e-09 -0.0322722)
(-0.0045154 1.59465e-09 -0.032388)
(-0.00567634 1.2913e-09 -0.0323491)
(-0.00687081 1.0838e-09 -0.0322131)
(-0.0080948 9.26658e-10 -0.0320114)
(-0.0093452 7.98526e-10 -0.0317629)
(-0.0106194 6.9419e-10 -0.0314799)
(-0.011915 5.92779e-10 -0.0311709)
(-0.0132299 5.08103e-10 -0.0308419)
(-0.0145621 4.21524e-10 -0.0304971)
(-0.0159098 3.34301e-10 -0.0301399)
(-0.0172711 2.511e-10 -0.0297725)
(-0.0186442 1.62097e-10 -0.0293965)
(-0.0200274 6.9887e-11 -0.0290131)
(-0.021419 -3.41871e-11 -0.0286227)
(-0.0228173 -1.425e-10 -0.0282255)
(-0.0242208 -2.60428e-10 -0.0278214)
(-0.0256281 -3.90121e-10 -0.0274099)
(-0.0270376 -5.33232e-10 -0.0269902)
(-0.0284482 -6.9523e-10 -0.0265615)
(-0.0298588 -8.71728e-10 -0.0261227)
(-0.0312683 -1.06638e-09 -0.0256728)
(-0.0326762 -1.28594e-09 -0.0252107)
(-0.0340819 -1.52956e-09 -0.0247354)
(-0.0354853 -1.80362e-09 -0.0242457)
(-0.0368866 -2.10816e-09 -0.0237407)
(-0.0382866 -2.45341e-09 -0.02322)
(-0.0396861 -2.83139e-09 -0.0226827)
(-0.0410862 -3.25405e-09 -0.0221279)
(-0.0424901 -3.73257e-09 -0.0215548)
(-0.0439055 -4.13956e-09 -0.020965)
(0.000442604 1.5298e-08 -0.0160014)
(-4.63353e-05 7.28853e-09 -0.0235096)
(-0.000905242 3.66667e-09 -0.0255816)
(-0.00193781 2.27683e-09 -0.0263654)
(-0.00308188 1.61173e-09 -0.0266943)
(-0.00429169 1.24201e-09 -0.026808)
(-0.00554638 9.87429e-10 -0.0268006)
(-0.00683781 8.13011e-10 -0.0267172)
(-0.0081616 6.822e-10 -0.0265831)
(-0.00951442 5.68104e-10 -0.0264134)
(-0.0108935 4.72807e-10 -0.0262178)
(-0.0122964 3.81375e-10 -0.026003)
(-0.0137211 3.00791e-10 -0.0257735)
(-0.0151657 2.15313e-10 -0.0255327)
(-0.0166284 1.33377e-10 -0.025283)
(-0.0181074 4.5462e-11 -0.0250258)
(-0.0196012 -4.40287e-11 -0.0247623)
(-0.0211081 -1.36165e-10 -0.0244928)
(-0.0226269 -2.4631e-10 -0.0242175)
(-0.024156 -3.58355e-10 -0.0239359)
(-0.0256942 -4.79838e-10 -0.0236474)
(-0.0272403 -6.17689e-10 -0.023351)
(-0.0287933 -7.68633e-10 -0.0230455)
(-0.0303524 -9.3332e-10 -0.0227295)
(-0.0319168 -1.12059e-09 -0.0224015)
(-0.0334861 -1.32575e-09 -0.0220599)
(-0.03506 -1.55364e-09 -0.0217029)
(-0.0366386 -1.81269e-09 -0.021329)
(-0.0382223 -2.10014e-09 -0.0209365)
(-0.0398117 -2.41864e-09 -0.0205238)
(-0.0414082 -2.77724e-09 -0.0200896)
(-0.043013 -3.16883e-09 -0.0196324)
(-0.0446275 -3.61108e-09 -0.0191507)
(-0.0462565 -4.10305e-09 -0.0186434)
(-0.0479118 -4.51721e-09 -0.0181117)