/*--------------------------------*- C++ -*----------------------------------*\
| =========                 |                                                 |
| \\      /  F ield         | OpenFOAM: The Open Source CFD Toolbox           |
|  \\    /   O peration     | Version:  v2012                                 |
|   \\  /    A nd           | Website:  www.openfoam.com                      |
|    \\/     M anipulation  |                                                 |
\*---------------------------------------------------------------------------*/
FoamFile
{
    version     2.0;
    format      ascii;
    class       volVectorField;
    location    "1";
    object      wallShearStress;
}
// * * * * * * * * * * * * * * * * * * * * * * * * * * * * * * * * * * * * * //

dimensions      [0 2 -2 0 0 0 0];


internalField   uniform (0 0 0);

boundaryField
{
    inlet
    {
        type            calculated;
        value           uniform (0 0 0);
    }
    outlet
    {
        type            calculated;
        value           uniform (0 0 0);
    }
    Bottom
    {
        type            calculated;
        value           nonuniform List<vector> 
683
(
(-0.000426865 -8.16416e-20 -1.87256e-07)
(-0.000422411 -8.38774e-20 -1.97737e-07)
(-0.000418569 -8.5769e-20 -2.11008e-07)
(-0.000413707 -8.87229e-20 -2.32535e-07)
(-0.000409409 -9.07335e-20 -2.50274e-07)
(-0.000404431 -9.67965e-20 -2.74364e-07)
(-0.000399149 -9.75028e-20 -2.93522e-07)
(-0.000394437 -1.04142e-19 -3.25514e-07)
(-0.000387953 -1.08284e-19 -3.57523e-07)
(-0.000383112 -1.1336e-19 -3.90789e-07)
(-0.000375568 -1.19451e-19 -4.34568e-07)
(-0.000370378 -1.22009e-19 -4.70686e-07)
(-0.000361931 -1.32646e-19 -5.19339e-07)
(-0.000355471 -1.30039e-19 -5.53488e-07)
(-0.000347987 -1.40938e-19 -6.40152e-07)
(-0.000338046 -1.50963e-19 -6.95104e-07)
(-0.000331666 -1.43123e-19 -7.57905e-07)
(-0.000319232 -1.73944e-19 -8.59045e-07)
(-0.00031292 -1.5344e-19 -8.99065e-07)
(-0.00029864 -1.96349e-19 -1.03384e-06)
(-0.000292175 -1.65126e-19 -1.05956e-06)
(-0.000276046 -2.21957e-19 -1.20262e-06)
(-0.000269447 -1.8694e-19 -1.20857e-06)
(-0.000253383 -2.56787e-19 -1.43172e-06)
(-0.000242566 -2.40695e-19 -1.49633e-06)
(-0.000230789 -2.20382e-19 -1.67111e-06)
(-0.000212799 -2.97561e-19 -1.72792e-06)
(-0.000205205 -2.32182e-19 -1.69607e-06)
(-0.000186279 -3.38418e-19 -1.90425e-06)
(-0.000178476 -2.63411e-19 -1.81831e-06)
(-0.000160808 -3.83577e-19 -2.03429e-06)
(-0.00015217 -3.03152e-19 -1.9027e-06)
(-0.000136802 -4.02154e-19 -2.05162e-06)
(-0.000127538 -3.48689e-19 -1.92912e-06)
(-0.000114895 -4.1511e-19 -1.98758e-06)
(-0.000105576 -3.95768e-19 -1.86189e-06)
(-9.56137e-05 -4.32989e-19 -1.81625e-06)
(-8.73656e-05 -4.33537e-19 -1.68764e-06)
(-7.96333e-05 -4.54511e-19 -1.55906e-06)
(-7.31276e-05 -4.62552e-19 -1.3865e-06)
(-6.7557e-05 -4.73613e-19 -1.18647e-06)
(-6.31293e-05 -4.79722e-19 -9.42885e-07)
(-5.98153e-05 -4.82863e-19 -6.59346e-07)
(-5.77394e-05 -4.823e-19 -3.04437e-07)
(-5.70277e-05 -4.53767e-19 1.3325e-07)
(-5.78224e-05 -4.05766e-19 5.39345e-07)
(-6.02072e-05 -4.26031e-19 1.17237e-06)
(-6.47423e-05 -4.27392e-19 1.92569e-06)
(-7.15937e-05 -4.10144e-19 2.75373e-06)
(-8.09268e-05 -3.74148e-19 3.84059e-06)
(-9.38885e-05 6.96521e-23 7.69406e-06)
(-0.000111829 -2.74072e-19 7.12656e-06)
(-0.000134507 -2.38938e-19 8.83488e-06)
(-0.000165485 -2.03311e-19 1.19196e-05)
(-0.000198115 -8.71363e-20 1.73471e-05)
(-0.000216457 -1.29878e-22 2.34702e-05)
(-0.000255248 -1.74328e-23 3.54263e-05)
(-0.000306921 -1.77951e-22 4.12676e-05)
(-0.00035354 7.53489e-23 5.61392e-05)
(-0.000395718 6.50896e-23 6.70175e-05)
(-0.000451481 -4.59177e-41 8.40622e-05)
(-0.000528075 7.66703e-23 0.000102196)
(-0.000595914 0 0.000127202)
(-0.000644695 0 0.000161221)
(-0.000681291 -2.46506e-23 0.000187745)
(-0.000696575 9.18355e-41 0.000211759)
(-0.000720453 6.79067e-24 0.000222821)
(-0.000749976 2.11569e-24 0.000228653)
(-0.000794178 2.29589e-41 0.000229797)
(-0.000850642 0 0.000229737)
(-0.000898494 -9.18355e-41 0.000231782)
(-0.000947252 -2.43499e-23 0.000232281)
(-0.00102441 5.9326e-23 0.00023841)
(-0.00108407 0 0.000233098)
(-0.00115591 1.83671e-40 0.000230957)
(-0.0012342 -9.19202e-23 0.000220881)
(-0.001337 9.18355e-41 0.000207308)
(-0.00141385 -6.31722e-23 0.000199161)
(-0.00147439 1.83671e-40 0.000187659)
(-0.00153514 1.83671e-40 0.000176732)
(-0.0015909 8.13085e-23 0.000154637)
(-0.00163944 0 0.000134824)
(-0.00170834 1.10117e-23 0.000107706)
(-0.00176685 -1.14794e-41 8.1027e-05)
(-0.00180714 -2.99053e-23 5.59504e-05)
(-0.00180689 2.29589e-41 4.22767e-05)
(-0.00180342 0 4.82089e-05)
(-0.00181275 -9.55293e-40 1.65582e-05)
(-0.00180144 -1.14794e-41 -1.82066e-05)
(-0.00173299 -2.88419e-23 -4.61297e-05)
(-0.00168324 -2.17966e-23 -6.37863e-05)
(-0.00161757 1.53639e-25 -0.000112627)
(-0.00160224 -5.50968e-23 -0.000113962)
(-0.00152317 -2.86986e-42 -0.000155455)
(-0.00148333 -5.31324e-23 -0.000163523)
(-0.00139515 -1.88285e-25 -0.000184382)
(-0.00132774 -9.71275e-23 -0.000188507)
(-0.00125612 8.28306e-25 -0.000197529)
(-0.00121994 1.03079e-25 -0.00020935)
(-0.00114398 -2.50438e-25 -0.000237408)
(-0.00112684 8.88781e-23 -0.000235198)
(-0.00106416 -3.67342e-40 -0.000259)
(-0.000997631 -2.85325e-25 -0.000266571)
(-0.000998462 -5.96292e-23 -0.000251018)
(-0.000959879 1.29698e-22 -0.000259839)
(-0.00094997 9.37495e-27 -0.00025453)
(-0.000948042 -3.25353e-25 -0.000270171)
(-0.00095202 -2.87651e-24 -0.000283246)
(-0.000935456 -2.14518e-22 -0.000293218)
(-0.000916684 2.20405e-39 -0.000295044)
(-0.000887337 -1.10681e-22 -0.000289904)
(-0.000923098 -2.52626e-26 -0.000288682)
(-0.00100745 2.024e-24 -0.000326646)
(-0.000931844 6.68327e-26 -0.00035123)
(-0.00106642 -2.97219e-26 -0.000310928)
(-0.0010762 8.1198e-25 -0.000374205)
(-0.00124071 2.49104e-39 -0.000413954)
(-0.00129768 8.10735e-41 -0.000443404)
(-0.0012879 9.20651e-39 -0.000460069)
(-0.00126348 7.67673e-25 -0.000464939)
(-0.0012527 -1.68491e-22 -0.00044473)
(-0.00127744 -1.86878e-24 -0.000436155)
(-0.00132211 -1.10456e-23 -0.000427346)
(-0.00145127 3.81117e-39 -0.000431216)
(-0.00135096 4.57181e-24 -0.000445679)
(-0.00133786 1.0859e-23 -0.000394889)
(-0.00127266 2.97964e-22 -0.000328121)
(-0.00126975 2.09601e-22 -0.000312191)
(-0.00124047 9.24697e-25 -0.000240993)
(-0.00122181 3.46082e-24 -0.000292225)
(-0.00104478 -5.72492e-24 -0.0002092)
(-0.000948445 -4.43135e-24 -0.000156393)
(-0.000899199 4.87242e-23 -0.000131651)
(-0.000902775 -4.79073e-23 -0.00011487)
(-0.000914385 -3.28239e-23 -0.000107825)
(-0.000919855 4.16483e-26 -9.77833e-05)
(-0.000930821 1.6567e-23 -8.90935e-05)
(-0.000930316 -4.60023e-23 -6.55608e-05)
(-0.000911784 5.79316e-26 -9.90446e-05)
(-0.000886463 -5.73972e-42 -6.11302e-05)
(-0.000878891 4.42999e-24 -6.08569e-05)
(-0.00087404 9.53549e-24 -3.3737e-05)
(-0.000897371 -4.69251e-24 -2.02549e-05)
(-0.000897449 -2.86986e-42 -1.88647e-05)
(-0.000891904 -2.83398e-26 -1.79143e-05)
(-0.000880622 0 -2.12609e-05)
(-0.000864415 -6.07292e-24 -1.17148e-05)
(-0.000867134 0 1.58542e-05)
(-0.000889636 -6.91071e-24 3.36696e-05)
(-0.000917963 -5.73972e-42 3.89762e-05)
(-0.000915927 0 1.91047e-05)
(-0.000903595 9.54143e-24 2.14215e-05)
(-0.00087917 2.29589e-41 3.80771e-05)
(-0.000873126 0 6.13971e-05)
(-0.000881159 0 6.14552e-05)
(-0.000874552 0 8.70376e-05)
(-0.000874935 0 9.93733e-05)
(-0.00087618 -1.37753e-39 9.29488e-05)
(-0.000861755 2.19717e-23 7.73244e-05)
(-0.000862816 -1.98734e-23 0.000112002)
(-0.000874079 -1.93004e-24 0.000117832)
(-0.000882394 -7.34684e-40 0.00012038)
(-0.000858043 5.08936e-23 0.000139592)
(-0.000857708 2.02038e-39 0.000146503)
(-0.000842977 5.73972e-42 0.00015221)
(-0.000827981 -1.38755e-25 0.000150491)
(-0.000811667 -3.98218e-23 0.000156933)
(-0.000810909 3.30608e-39 0.000149006)
(-0.00076081 1.06065e-24 0.000177436)
(-0.000703281 -1.1202e-22 0.000187964)
(-0.000636832 1.86274e-24 0.000181858)
(-0.000622668 2.0481e-24 0.00019979)
(-0.000625059 -1.83671e-40 0.000193937)
(-0.000649295 3.93548e-23 0.000182609)
(-0.000651702 -3.67342e-40 0.000151123)
(-0.000629643 0 0.000140926)
(-0.000545116 5.73972e-42 0.000147319)
(-0.000506286 3.33687e-25 0.000156128)
(-0.000513502 -2.4834e-25 0.0001579)
(-0.000554102 5.46708e-40 0.000157611)
(-0.000567213 -5.26678e-24 8.69869e-05)
(-0.000402983 7.52316e-37 7.76639e-05)
(-0.000166728 7.24957e-20 4.98769e-05)
(-0.000152878 5.42339e-20 7.51944e-05)
(-0.000215321 1.8368e-21 9.76197e-05)
(-0.000273352 7.37627e-20 6.24652e-05)
(-0.000318531 7.34246e-20 4.64323e-05)
(-0.00035142 7.23476e-20 3.32332e-05)
(-0.000376511 7.50606e-20 2.32126e-05)
(-0.00039215 5.94308e-20 1.93666e-05)
(-0.000415971 8.18024e-20 1.52151e-05)
(-0.000421277 4.14139e-20 1.51608e-05)
(-0.000441937 9.189e-20 8.36673e-06)
(-0.000439876 5.94531e-20 4.51423e-06)
(-0.000442296 4.62203e-20 -4.09742e-08)
(-0.000435646 7.47487e-20 -3.2637e-06)
(-0.000431176 5.32415e-20 -4.45837e-06)
(-0.000420953 6.38949e-20 -5.88907e-06)
(-0.000414405 5.87733e-20 -6.66016e-06)
(-0.000402832 5.97626e-20 -7.98715e-06)
(-0.000393207 6.0146e-20 -8.67328e-06)
(-0.000379125 6.1879e-20 -9.68431e-06)
(-0.000368642 5.46796e-20 -1.09714e-05)
(-0.000346628 7.68358e-20 -1.32305e-05)
(-0.000337367 4.98383e-20 -1.54368e-05)
(-0.000302967 1.11131e-19 -1.8767e-05)
(-0.000295734 5.40345e-20 -1.87256e-05)
(-0.000258281 1.25614e-19 -1.85662e-05)
(-0.000255643 6.02144e-20 -1.6622e-05)
(-0.00021974 1.44734e-19 -1.64858e-05)
(-0.000217135 7.0076e-20 -1.46079e-05)
(-0.000187579 1.35578e-19 -1.458e-05)
(-0.000179184 9.11459e-20 -1.30475e-05)
(-0.000157588 1.26226e-19 -1.28197e-05)
(-0.000144507 1.21875e-19 -1.11222e-05)
(-0.000129607 1.36087e-19 -1.01221e-05)
(-0.00011767 1.44873e-19 -8.97405e-06)
(-0.000106298 1.55746e-19 -8.63429e-06)
(-9.51915e-05 1.67371e-19 -8.6806e-06)
(-8.39307e-05 1.83078e-19 -8.78149e-06)
(-7.29905e-05 2.00157e-19 -8.54907e-06)
(-6.28339e-05 2.18445e-19 -7.9873e-06)
(-5.37856e-05 2.37536e-19 -7.29204e-06)
(-4.57879e-05 2.57438e-19 -6.67466e-06)
(-3.86692e-05 2.78371e-19 -6.18592e-06)
(-3.2195e-05 3.00524e-19 -5.7999e-06)
(-2.6334e-05 3.22965e-19 -5.1409e-06)
(-2.14058e-05 3.24111e-19 -4.291e-06)
(-1.70658e-05 3.16057e-19 -3.69568e-06)
(-1.32604e-05 3.0548e-19 -3.21919e-06)
(-9.87905e-06 2.9526e-19 -2.87139e-06)
(-6.66831e-06 2.88852e-19 -2.58946e-06)
(-3.65027e-06 2.89391e-19 -2.51555e-06)
(-7.30719e-07 2.97256e-19 -2.71403e-06)
(2.17527e-06 2.95946e-19 -2.65179e-06)
(4.70007e-06 2.84673e-19 -2.42696e-06)
(6.98953e-06 2.82936e-19 -2.22235e-06)
(9.05479e-06 2.91806e-19 -2.02915e-06)
(1.08371e-05 2.98914e-19 -1.68077e-06)
(1.2256e-05 2.93106e-19 -1.27011e-06)
(1.34484e-05 2.68233e-19 -9.39576e-07)
(1.41708e-05 2.48582e-19 -5.97015e-07)
(1.47148e-05 2.46292e-19 -3.26075e-07)
(1.49802e-05 2.62754e-19 -6.14988e-08)
(1.49462e-05 2.62728e-19 2.30721e-07)
(1.46204e-05 2.45376e-19 4.22943e-07)
(1.41319e-05 2.46769e-19 5.75943e-07)
(1.35071e-05 2.58696e-19 7.29812e-07)
(1.27518e-05 2.85261e-19 8.92807e-07)
(1.18295e-05 3.03073e-19 1.01014e-06)
(1.0846e-05 3.04916e-19 1.10628e-06)
(9.79622e-06 3.05154e-19 1.15462e-06)
(8.69675e-06 3.05366e-19 1.18275e-06)
(7.59414e-06 3.0458e-19 1.18467e-06)
(6.47497e-06 2.97369e-19 1.20802e-06)
(5.38495e-06 2.87993e-19 1.16546e-06)
(4.36385e-06 2.87313e-19 1.03228e-06)
(3.413e-06 2.92348e-19 9.23541e-07)
(2.5484e-06 2.97112e-19 8.144e-07)
(1.78415e-06 3.01444e-19 6.98592e-07)
(1.13704e-06 3.05192e-19 5.75883e-07)
(6.21807e-07 3.08197e-19 4.47521e-07)
(2.50702e-07 3.08612e-19 2.93788e-07)
(4.19542e-08 3.0767e-19 1.23404e-07)
(-1.22629e-08 3.05628e-19 -6.21537e-09)
(8.71637e-08 3.02632e-19 -1.6727e-07)
(3.6726e-07 2.99419e-19 -3.56383e-07)
(8.18056e-07 2.93055e-19 -5.10472e-07)
(1.44115e-06 2.84477e-19 -6.46494e-07)
(2.1972e-06 2.75137e-19 -7.37456e-07)
(3.02786e-06 2.65419e-19 -7.70179e-07)
(3.8665e-06 2.55723e-19 -7.33089e-07)
(4.64215e-06 2.46432e-19 -6.1955e-07)
(5.28559e-06 2.37829e-19 -4.36978e-07)
(5.73204e-06 2.30102e-19 -2.12288e-07)
(5.97042e-06 2.31541e-19 3.28556e-09)
(5.90383e-06 2.25087e-19 2.25216e-07)
(5.56069e-06 2.12467e-19 4.93913e-07)
(4.93019e-06 2.08494e-19 8.07485e-07)
(3.98938e-06 2.0547e-19 1.12798e-06)
(2.75083e-06 2.03394e-19 1.44108e-06)
(1.21253e-06 2.01692e-19 1.73567e-06)
(-6.22228e-07 1.96193e-19 1.88284e-06)
(-2.63083e-06 1.87494e-19 1.94056e-06)
(-4.75637e-06 1.83329e-19 2.16514e-06)
(-7.09504e-06 1.83202e-19 2.51237e-06)
(-9.63942e-06 1.8239e-19 2.87051e-06)
(-1.2348e-05 1.80217e-19 3.06758e-06)
(-1.51361e-05 1.77528e-19 3.15087e-06)
(-1.79685e-05 1.75118e-19 3.19512e-06)
(-2.08102e-05 1.72917e-19 3.19412e-06)
(-2.36189e-05 1.69744e-19 3.21457e-06)
(-2.64249e-05 1.636e-19 3.28215e-06)
(-2.92059e-05 1.58837e-19 3.20727e-06)
(-3.18567e-05 1.53677e-19 2.99381e-06)
(-3.43313e-05 1.49125e-19 2.75179e-06)
(-3.66208e-05 1.4389e-19 2.4924e-06)
(-3.86979e-05 1.3823e-19 2.21211e-06)
(-4.05304e-05 1.33401e-19 1.91457e-06)
(-4.20965e-05 1.29372e-19 1.60204e-06)
(-4.33519e-05 1.27089e-19 1.28358e-06)
(-4.43175e-05 1.26234e-19 9.51551e-07)
(-4.49747e-05 1.1926e-19 6.28652e-07)
(-4.52561e-05 1.36124e-19 2.50434e-07)
(-4.51422e-05 1.17173e-19 -1.05347e-07)
(-4.47173e-05 1.04327e-19 -4.08277e-07)
(-4.39123e-05 1.04846e-19 -7.50078e-07)
(-4.2725e-05 1.05692e-19 -1.09608e-06)
(-4.11638e-05 1.06881e-19 -1.44296e-06)
(-3.92356e-05 1.0841e-19 -1.78895e-06)
(-3.69473e-05 1.10319e-19 -2.13366e-06)
(-3.43091e-05 1.12647e-19 -2.4765e-06)
(-3.13341e-05 1.15413e-19 -2.81852e-06)
(-2.80358e-05 1.18661e-19 -3.16151e-06)
(-2.44294e-05 1.22457e-19 -3.50768e-06)
(-2.054e-05 1.26871e-19 -3.86828e-06)
(-1.63442e-05 1.32024e-19 -4.32567e-06)
(-1.18785e-05 1.40842e-19 -4.96917e-06)
(-7.07693e-06 1.51826e-19 -5.55342e-06)
(-2.14805e-06 1.56914e-19 -5.6359e-06)
(2.65821e-06 1.52305e-19 -6.08447e-06)
(7.75984e-06 1.13125e-19 -7.87978e-06)
(1.4125e-05 5.00489e-20 -9.94047e-06)
(2.04197e-05 2.72293e-20 -1.01309e-05)
(2.64565e-05 4.12625e-20 -8.93395e-06)
(3.24088e-05 5.57538e-20 -7.67902e-06)
(3.81296e-05 7.917e-20 -6.09329e-06)
(4.3424e-05 1.08787e-19 -4.81749e-06)
(4.90062e-05 1.05798e-19 -4.67554e-06)
(5.49093e-05 1.01774e-19 -4.68841e-06)
(6.09099e-05 9.79681e-20 -4.75878e-06)
(6.71798e-05 9.40413e-20 -4.85667e-06)
(7.34424e-05 9.05244e-20 -4.90133e-06)
(8.00315e-05 8.66896e-20 -4.99959e-06)
(8.64602e-05 8.34933e-20 -4.98611e-06)
(9.32186e-05 7.9884e-20 -5.04605e-06)
(9.96449e-05 7.70674e-20 -4.96652e-06)
(0.00010633 7.38233e-20 -4.99237e-06)
(0.000112531 7.14041e-20 -4.9508e-06)
(0.000118911 6.85806e-20 -5.15027e-06)
(0.000124905 6.48986e-20 -5.72554e-06)
(0.000131429 7.99729e-21 -7.0489e-06)
(0.000136712 -8.25595e-24 -5.9549e-06)
(0.000142032 3.50188e-20 -4.34136e-06)
(0.000146548 5.87863e-20 -3.4209e-06)
(0.000151027 5.70573e-20 -3.19369e-06)
(0.000154952 5.58506e-20 -2.93684e-06)
(0.000158804 5.43535e-20 -2.67924e-06)
(0.000162023 5.33133e-20 -2.4166e-06)
(0.000165118 5.20106e-20 -2.14457e-06)
(0.000167622 5.11038e-20 -1.88967e-06)
(0.000169946 4.99571e-20 -1.61641e-06)
(0.000171733 4.91522e-20 -1.38183e-06)
(0.000173269 4.81296e-20 -1.11382e-06)
(0.000174327 4.74138e-20 -8.887e-07)
(0.000175207 4.651e-20 -6.53564e-07)
(0.000175674 5.02882e-20 -4.56913e-07)
(0.000175943 5.49115e-20 -2.17737e-07)
(0.000175775 4.22594e-20 1.01741e-07)
(0.00017533 4.36896e-20 3.34602e-07)
(0.000174574 4.31424e-20 5.67171e-07)
(0.000173532 4.24381e-20 7.82581e-07)
(0.000172239 4.19163e-20 9.88948e-07)
(0.00017068 4.12538e-20 1.22632e-06)
(0.000168846 4.07398e-20 1.44045e-06)
(0.000166726 4.01226e-20 1.63246e-06)
(0.000164379 3.9618e-20 1.80053e-06)
(0.000161804 3.90501e-20 1.98602e-06)
(0.000159008 3.85337e-20 2.16336e-06)
(0.000155996 3.80052e-20 2.34199e-06)
(0.000152776 3.74912e-20 2.51682e-06)
(0.000149355 3.69814e-20 2.68936e-06)
(0.000145742 3.64775e-20 2.85945e-06)
(0.000141944 3.59785e-20 3.02732e-06)
(0.000137968 3.54838e-20 3.1932e-06)
(0.000133822 3.49929e-20 3.35733e-06)
(0.000129511 3.45053e-20 3.51999e-06)
(0.000125043 3.40206e-20 3.68151e-06)
(0.000120424 3.35384e-20 3.84225e-06)
(0.000115661 3.30584e-20 4.00258e-06)
(0.000110759 3.25774e-20 4.16273e-06)
(0.000105724 3.2096e-20 4.32283e-06)
(0.000100564 3.16159e-20 4.48337e-06)
(9.52828e-05 3.11366e-20 4.64503e-06)
(8.98869e-05 3.06577e-20 4.80845e-06)
(8.43816e-05 3.01791e-20 4.97439e-06)
(7.87722e-05 2.97005e-20 5.14383e-06)
(7.30638e-05 2.92214e-20 5.31801e-06)
(6.72617e-05 2.87417e-20 5.49864e-06)
(6.1372e-05 2.82612e-20 5.6884e-06)
(5.53994e-05 2.77793e-20 5.89242e-06)
(4.93339e-05 2.72952e-20 6.11838e-06)
(4.31847e-05 2.68098e-20 6.37753e-06)
(3.71173e-05 2.73668e-20 6.82472e-06)
(3.07023e-05 2.908e-20 7.52406e-06)
(2.40624e-05 2.93803e-20 7.958e-06)
(1.77316e-05 2.79156e-20 7.85026e-06)
(1.13269e-05 2.62713e-20 7.90472e-06)
(4.82782e-06 2.46725e-20 7.96914e-06)
(-1.74388e-06 2.31331e-20 8.11816e-06)
(-8.39782e-06 2.15327e-20 7.83052e-06)
(-1.49412e-05 2.00958e-20 7.96578e-06)
(-2.15879e-05 1.87744e-20 8.10533e-06)
(-2.82395e-05 1.73943e-20 8.10597e-06)
(-3.48983e-05 1.55321e-20 8.35216e-06)
(-4.17934e-05 1.38719e-20 8.4483e-06)
(-4.87092e-05 1.21965e-20 8.22594e-06)
(-5.55848e-05 1.06507e-20 8.00162e-06)
(-6.24664e-05 9.21811e-21 7.79655e-06)
(-6.93691e-05 7.71814e-21 7.56588e-06)
(-7.62761e-05 6.37581e-21 7.33012e-06)
(-8.31855e-05 5.18171e-21 7.09531e-06)
(-9.00942e-05 4.13239e-21 6.86077e-06)
(-9.69843e-05 3.23223e-21 6.62972e-06)
(-0.000103786 2.49988e-21 6.46161e-06)
(-0.000110635 1.87564e-21 6.35511e-06)
(-0.000117487 1.30299e-21 6.26135e-06)
(-0.000124332 7.7833e-22 6.17251e-06)
(-0.000131176 2.98487e-22 6.08587e-06)
(-0.000138008 -1.39365e-22 6.00045e-06)
(-0.000144834 -5.38159e-22 5.91718e-06)
(-0.00015164 -9.00514e-22 5.83358e-06)
(-0.000158434 -1.2287e-21 5.75256e-06)
(-0.000165201 -1.52524e-21 5.67367e-06)
(-0.00017195 -1.79225e-21 5.59913e-06)
(-0.000178669 -2.03188e-21 5.52417e-06)
(-0.000185363 -2.2456e-21 5.45122e-06)
(-0.000192024 -2.43524e-21 5.37714e-06)
(-0.000198652 -2.60217e-21 5.30375e-06)
(-0.000205241 -2.74789e-21 5.22965e-06)
(-0.000211791 -2.87369e-21 5.15543e-06)
(-0.000218297 -2.98085e-21 5.08061e-06)
(-0.000224756 -3.07056e-21 5.00496e-06)
(-0.000231165 -3.14396e-21 4.92794e-06)
(-0.00023752 -3.20212e-21 4.84863e-06)
(-0.000243815 -3.24626e-21 4.76455e-06)
(-0.000250034 -3.2776e-21 4.67778e-06)
(-0.000256131 -3.22921e-21 4.63694e-06)
(-0.000262225 -2.80958e-21 4.9646e-06)
(-0.000268256 -2.31718e-21 5.43914e-06)
(-0.000274237 -1.66108e-21 6.12868e-06)
(-0.000280181 -8.81199e-22 7.04229e-06)
(-0.000286078 -1.40696e-22 8.05624e-06)
(-0.000291876 1.49297e-22 8.9567e-06)
(-0.000297634 -4.48442e-22 8.8421e-06)
(-0.000303721 -1.66122e-21 7.45894e-06)
(-0.000310016 -2.99274e-21 5.45571e-06)
(-0.000315526 -2.91151e-21 4.53294e-06)
(-0.000320893 -2.82113e-21 4.06815e-06)
(-0.000326157 -2.72976e-21 3.81265e-06)
(-0.00033138 -2.63395e-21 3.6624e-06)
(-0.000336514 -2.53459e-21 3.55733e-06)
(-0.000341603 -2.4305e-21 3.47818e-06)
(-0.000346595 -2.32295e-21 3.40461e-06)
(-0.000351538 -2.21092e-21 3.33777e-06)
(-0.000356375 -2.0958e-21 3.26702e-06)
(-0.000361158 -1.97671e-21 3.19941e-06)
(-0.000365828 -1.85498e-21 3.12689e-06)
(-0.000370443 -1.72982e-21 3.05777e-06)
(-0.000374938 -1.60244e-21 2.98388e-06)
(-0.000379378 -1.47213e-21 2.91379e-06)
(-0.000383693 -1.34e-21 2.83913e-06)
(-0.000387953 -1.20544e-21 2.76859e-06)
(-0.000392084 -1.06937e-21 2.69365e-06)
(-0.00039616 -9.31336e-22 2.62303e-06)
(-0.000400105 -7.92088e-22 2.54811e-06)
(-0.000403994 -6.51298e-22 2.47762e-06)
(-0.000407748 -5.09541e-22 2.40291e-06)
(-0.000411448 -3.6665e-22 2.33264e-06)
(-0.000415011 -2.23002e-22 2.25817e-06)
(-0.000418519 -7.86139e-23 2.18799e-06)
(-0.000421887 6.6348e-23 2.11345e-06)
(-0.000425202 2.11646e-22 2.04308e-06)
(-0.000428372 3.57309e-22 1.96874e-06)
(-0.00043149 5.02921e-22 1.89874e-06)
(-0.000434462 6.48776e-22 1.82498e-06)
(-0.000437382 7.94248e-22 1.75544e-06)
(-0.000440154 9.39865e-22 1.68225e-06)
(-0.000442876 1.08478e-21 1.61309e-06)
(-0.000445447 1.22975e-21 1.54038e-06)
(-0.000447968 1.37369e-21 1.4715e-06)
(-0.000450337 1.51763e-21 1.39917e-06)
(-0.000452657 1.66023e-21 1.33045e-06)
(-0.000454821 1.80276e-21 1.25843e-06)
(-0.000456938 1.94366e-21 1.18978e-06)
(-0.000458897 2.08443e-21 1.118e-06)
(-0.000460809 2.22329e-21 1.04938e-06)
(-0.00046256 2.36232e-21 9.7795e-07)
(-0.000464266 2.49925e-21 9.0972e-07)
(-0.000465809 2.63611e-21 8.39419e-07)
(-0.00046731 2.77037e-21 7.72592e-07)
(-0.000468647 2.90465e-21 7.04408e-07)
(-0.000469953 3.03557e-21 6.35018e-07)
(-0.000471075 3.16699e-21 5.60216e-07)
(-0.000472161 3.29515e-21 4.86348e-07)
(-0.000473068 3.42307e-21 4.07657e-07)
(-0.000473935 3.54763e-21 3.31836e-07)
(-0.000474619 3.67188e-21 2.55956e-07)
(-0.000475259 3.79225e-21 1.84109e-07)
(-0.00047572 3.9124e-21 1.12324e-07)
(-0.000476147 4.02677e-21 4.24906e-08)
(-0.000476394 4.14048e-21 -2.74796e-08)
(-0.000476617 3.64189e-21 -8.54808e-08)
(-0.000476647 5.62531e-21 -1.66935e-07)
(-0.000476638 4.46758e-21 -2.36362e-07)
(-0.000476431 4.57273e-21 -2.98335e-07)
(-0.000476229 4.67421e-21 -3.54075e-07)
(-0.000475812 4.77417e-21 -4.26044e-07)
(-0.000475391 4.87359e-21 -4.89259e-07)
(-0.000474758 4.97234e-21 -5.61299e-07)
(-0.000474126 5.06903e-21 -6.21093e-07)
(-0.00047329 5.16397e-21 -6.91753e-07)
(-0.000472451 5.25632e-21 -7.61557e-07)
(-0.000471389 5.34668e-21 -8.38743e-07)
(-0.000470302 5.43168e-21 -9.09698e-07)
(-0.000468998 5.51622e-21 -9.80399e-07)
(-0.000467673 5.59548e-21 -1.04462e-06)
(-0.000466151 5.67504e-21 -1.10813e-06)
(-0.000464612 5.74935e-21 -1.16862e-06)
(-0.000462889 5.82442e-21 -1.22588e-06)
(-0.000461152 5.8944e-21 -1.28268e-06)
(-0.000459241 5.96553e-21 -1.33309e-06)
(-0.00045732 6.03145e-21 -1.38966e-06)
(-0.000455234 6.09971e-21 -1.43993e-06)
(-0.00045311 6.16251e-21 -1.51626e-06)
(-0.000450802 6.22671e-21 -1.57204e-06)
(-0.00044843 6.28384e-21 -1.64797e-06)
(-0.000445904 6.34153e-21 -1.69142e-06)
(-0.000443335 6.39314e-21 -1.75474e-06)
(-0.000440649 6.44689e-21 -1.79113e-06)
(-0.000437922 5.62049e-21 -1.89284e-06)
(-0.00043508 3.4102e-21 -2.05228e-06)
(-0.000432202 1.63231e-21 -2.2991e-06)
(-0.000429227 2.6119e-23 -2.62301e-06)
(-0.000426119 8.87158e-22 -2.92916e-06)
(-0.000422857 4.67516e-21 -2.88793e-06)
(-0.000419412 6.7635e-21 -2.66955e-06)
(-0.00041611 6.79968e-21 -2.45388e-06)
(-0.000412584 6.83781e-21 -2.37366e-06)
(-0.000409238 6.87428e-21 -2.30149e-06)
(-0.000405527 6.91043e-21 -2.33136e-06)
(-0.000402064 6.94564e-21 -2.30778e-06)
(-0.000398181 6.98047e-21 -2.38702e-06)
(-0.000394594 7.01446e-21 -2.36939e-06)
(-0.000390569 7.04819e-21 -2.45692e-06)
(-0.000386875 7.08135e-21 -2.43581e-06)
(-0.000382735 7.11455e-21 -2.52593e-06)
(-0.000378946 7.14714e-21 -2.50061e-06)
(-0.000374713 7.18012e-21 -2.5849e-06)
(-0.000370849 7.21248e-21 -2.55504e-06)
(-0.000366545 7.2461e-21 -2.6427e-06)
(-0.000362604 7.27909e-21 -2.61656e-06)
(-0.000358229 7.31306e-21 -2.68654e-06)
(-0.000354232 7.34603e-21 -2.65405e-06)
(-0.000349817 7.38129e-21 -2.74034e-06)
(-0.000345741 7.41538e-21 -2.72088e-06)
(-0.000341256 7.45123e-21 -2.77981e-06)
(-0.000337119 7.48522e-21 -2.75667e-06)
(-0.000332601 7.52192e-21 -2.82193e-06)
(-0.000328407 7.556e-21 -2.79328e-06)
(-0.000323889 7.594e-21 -2.81455e-06)
(-0.000319703 7.62928e-21 -2.78431e-06)
(-0.000315229 7.66974e-21 -2.79938e-06)
(-0.000311061 7.70689e-21 -2.76142e-06)
(-0.000306663 7.75052e-21 -2.75127e-06)
(-0.000302546 7.7905e-21 -2.71502e-06)
(-0.000298245 7.83764e-21 -2.68832e-06)
(-0.000294206 7.88115e-21 -2.64296e-06)
(-0.000290036 7.93277e-21 -2.60694e-06)
(-0.000286099 7.98086e-21 -2.56127e-06)
(-0.000282067 8.03694e-21 -2.51528e-06)
(-0.000278255 8.08958e-21 -2.46586e-06)
(-0.000274378 8.15032e-21 -2.41436e-06)
(-0.000270713 8.20773e-21 -2.36145e-06)
(-0.000267004 8.27327e-21 -2.30426e-06)
(-0.000263502 8.3357e-21 -2.25019e-06)
(-0.000259969 8.40603e-21 -2.19043e-06)
(-0.000256636 8.47333e-21 -2.13462e-06)
(-0.000253285 8.54807e-21 -2.07464e-06)
(-0.000250125 8.61963e-21 -2.01915e-06)
(-0.000246961 8.69767e-21 -1.96382e-06)
(-0.000243966 8.77244e-21 -1.92303e-06)
(-0.000240964 8.88496e-21 -1.91386e-06)
(-0.000237534 1.12697e-20 -1.89273e-06)
(-0.00023391 1.17912e-20 -1.77841e-06)
(-0.000230373 1.22684e-20 -1.66513e-06)
(-0.000226865 1.27602e-20 -1.53548e-06)
(-0.000223615 1.32376e-20 -1.38157e-06)
(-0.000220498 1.37087e-20 -1.20591e-06)
(-0.00021794 1.43349e-20 -1.07366e-06)
(-0.000215023 1.57317e-20 -8.80614e-07)
(-0.00021339 1.34305e-20 -7.33164e-07)
(-0.000211038 1.90577e-20 -4.81207e-07)
(-0.0002103 1.25196e-20 -2.52482e-07)
(-0.000209539 2.30956e-20 2.49471e-08)
(-0.00020971 1.57517e-20 2.44878e-07)
(-0.000210589 1.57294e-20 4.63007e-07)
(-0.000211691 1.5689e-20 6.17703e-07)
(-0.000213804 1.55512e-20 7.99241e-07)
(-0.000215963 1.54169e-20 8.9563e-07)
(-0.000219026 1.52013e-20 1.02147e-06)
(-0.000222139 1.50008e-20 1.08097e-06)
(-0.000225913 1.47493e-20 1.1475e-06)
(-0.000229721 1.45155e-20 1.1664e-06)
(-0.000233953 1.42529e-20 1.18309e-06)
(-0.000238185 1.40048e-20 1.16881e-06)
(-0.000242663 1.37393e-20 1.15258e-06)
(-0.000247113 1.34827e-20 1.11945e-06)
(-0.000251694 1.32124e-20 1.08653e-06)
(-0.000256231 1.29458e-20 1.04606e-06)
(-0.000260846 1.26646e-20 1.0078e-06)
(-0.000265413 1.23816e-20 9.67527e-07)
(-0.000270041 1.20813e-20 9.30953e-07)
(-0.000274628 1.17746e-20 8.94566e-07)
(-0.000279279 1.1448e-20 8.62111e-07)
(-0.000283901 1.11117e-20 8.30282e-07)
(-0.000288595 1.07537e-20 8.01915e-07)
(-0.000293269 1.03836e-20 7.73766e-07)
(-0.000298022 9.991e-21 7.4876e-07)
(-0.000302767 9.58391e-21 7.23283e-07)
(-0.000307585 9.15699e-21 6.98242e-07)
(-0.000312381 8.71742e-21 6.73683e-07)
(-0.000317266 8.25387e-21 6.5344e-07)
(-0.000322157 7.77473e-21 6.33903e-07)
(-0.000327144 7.2756e-21 6.13586e-07)
(-0.000332108 6.76578e-21 5.90574e-07)
(-0.000337135 6.24004e-21 5.68842e-07)
(-0.000342137 5.70434e-21 5.46045e-07)
(-0.000347185 5.15692e-21 5.2407e-07)
(-0.000352201 4.60183e-21 5.0133e-07)
(-0.000357241 4.03883e-21 4.79071e-07)
(-0.000362234 3.472e-21 4.55934e-07)
(-0.000367225 2.90187e-21 4.32958e-07)
(-0.000372146 2.33189e-21 4.09085e-07)
(-0.000377029 1.76375e-21 3.85431e-07)
(-0.000381822 1.19991e-21 3.61203e-07)
(-0.00038654 6.42591e-22 3.37034e-07)
(-0.000391137 9.38173e-23 3.12383e-07)
(-0.000395617 -4.43864e-22 2.88067e-07)
(-0.000399952 -9.68929e-22 2.63718e-07)
(-0.000404129 -1.47931e-21 2.39714e-07)
(-0.000408131 -1.97346e-21 2.16063e-07)
(-0.000411943 -2.44994e-21 1.92766e-07)
(-0.00041555 -2.90731e-21 1.70053e-07)
(-0.000418939 -3.34494e-21 1.48141e-07)
(-0.000422099 -3.76213e-21 1.27175e-07)
(-0.00042502 -4.1585e-21 1.07256e-07)
(-0.000427694 -4.53391e-21 8.846e-08)
(-0.000430114 -4.88842e-21 7.08519e-08)
(-0.000432277 -5.2226e-21 5.42571e-08)
(-0.00043417 -5.55708e-21 3.9037e-08)
(-0.0004358 -5.91696e-21 2.57973e-08)
(-0.000437173 -6.29405e-21 1.40107e-08)
(-0.000438291 -6.70604e-21 3.89237e-09)
(-0.000439147 -7.1959e-21 -5.78362e-09)
(-0.000439736 -7.73041e-21 -1.42619e-08)
(-0.000440103 -8.15759e-21 -1.88938e-08)
(-0.000440314 -7.96857e-21 -2.62502e-08)
(-0.000440205 -8.65776e-21 -3.31765e-08)
(-0.000439939 -7.61786e-21 -3.89763e-08)
(-0.000439402 -7.7915e-21 -4.42397e-08)
(-0.00043866 -7.94828e-21 -4.67627e-08)
(-0.000437794 -6.06074e-21 -4.97729e-08)
(-0.000436722 -6.14922e-22 -5.19003e-08)
(-0.000435494 -8.299e-21 -5.35436e-08)
(-0.000434111 -8.37206e-21 -5.35941e-08)
(-0.000432582 -8.42642e-21 -5.48168e-08)
(-0.000430904 -8.46651e-21 -5.58354e-08)
(-0.000429099 -8.45841e-21 -5.66083e-08)
(-0.000427139 -8.40213e-21 -5.74064e-08)
(-0.000425064 -8.31296e-21 -5.77148e-08)
(-0.000422845 -8.16927e-21 -5.77604e-08)
(-0.000420532 -7.94271e-21 -5.80881e-08)
(-0.000418052 -7.68707e-21 -5.79605e-08)
(-0.000415509 -7.38742e-21 -5.74876e-08)
(-0.000412811 -7.03874e-21 -5.68968e-08)
(-0.000410076 -6.63308e-21 -5.63411e-08)
(-0.000407169 -6.18343e-21 -5.5558e-08)
(-0.000404268 -5.68905e-21 -5.45521e-08)
(-0.000401205 -5.18315e-21 -5.31659e-08)
(-0.000398203 -4.65324e-21 -5.16479e-08)
(-0.00039505 -4.13364e-21 -4.97238e-08)
(-0.000392024 -3.58789e-21 -4.82568e-08)
)
;
    }
    Top
    {
        type            calculated;
        value           uniform (0 0 0);
    }
    SideWalls
    {
        type            empty;
    }
    cylinder
    {
        type            calculated;
        value           uniform (0 0 0);
    }
    ledge
    {
        type            calculated;
        value           uniform (0 0 0);
    }
}


// ************************************************************************* //
