/*--------------------------------*- C++ -*----------------------------------*\
| =========                 |                                                 |
| \\      /  F ield         | OpenFOAM: The Open Source CFD Toolbox           |
|  \\    /   O peration     | Version:  2412                                  |
|   \\  /    A nd           | Website:  www.openfoam.com                      |
|    \\/     M anipulation  |                                                 |
\*---------------------------------------------------------------------------*/
FoamFile
{
    version     2.0;
    format      ascii;
    arch        "LSB;label=32;scalar=64";
    class       volScalarField;
    location    "2000";
    object      epsilon;
}
// * * * * * * * * * * * * * * * * * * * * * * * * * * * * * * * * * * * * * //

dimensions      [0 2 -3 0 0 0 0];

internalField   nonuniform List<scalar> 
150400
(
3.09038e-12
3.17066e-12
3.33239e-12
3.58241e-12
3.93344e-12
4.40715e-12
5.03623e-12
5.86464e-12
6.95085e-12
8.37166e-12
1.023e-11
1.26652e-11
1.58668e-11
2.00833e-11
2.56192e-11
3.29053e-11
4.25265e-11
5.52756e-11
7.2274e-11
9.49102e-11
1.24712e-10
1.63701e-10
2.14476e-10
2.80241e-10
3.64936e-10
4.73575e-10
6.12281e-10
7.89018e-10
1.01036e-09
1.29604e-09
1.6577e-09
2.0799e-09
2.64987e-09
3.48102e-09
4.74735e-09
6.74779e-09
1.07417e-08
1.73801e-08
2.59156e-08
4.32341e-08
7.38825e-08
1.25638e-07
2.11339e-07
3.49603e-07
5.65076e-07
8.97935e-07
1.38274e-06
2.06205e-06
2.96666e-06
4.09553e-06
5.36669e-06
6.45663e-06
7.1395e-06
7.39018e-06
7.13129e-06
6.4781e-06
6.03325e-06
8.11056e-06
1.24715e-05
2.04384e-05
3.11724e-05
4.43121e-05
5.98359e-05
7.70728e-05
9.53432e-05
0.000113756
0.000130765
0.000149771
0.000160164
0.000166845
0.000168615
0.000165895
0.000159622
0.00015079
0.000140612
0.000130432
0.00012192
0.000116703
0.000115479
0.000121301
3.08761e-12
3.13833e-12
3.28099e-12
3.51821e-12
3.86053e-12
4.32664e-12
4.9445e-12
5.75254e-12
6.80183e-12
8.15936e-12
9.91351e-12
1.21811e-11
1.51157e-11
1.8916e-11
2.38343e-11
3.02059e-11
3.84781e-11
4.92383e-11
6.3256e-11
8.14774e-11
1.05021e-10
1.35275e-10
1.7399e-10
2.23341e-10
2.86025e-10
3.65449e-10
4.65907e-10
5.92906e-10
7.53337e-10
9.58459e-10
1.22069e-09
1.55707e-09
2.02156e-09
2.70094e-09
3.73697e-09
5.38174e-09
8.13301e-09
1.244e-08
1.88737e-08
2.97986e-08
4.76532e-08
7.59468e-08
1.19838e-07
1.86307e-07
2.84234e-07
4.24778e-07
6.17184e-07
8.6876e-07
1.17955e-06
1.53654e-06
1.89525e-06
2.18549e-06
2.41368e-06
2.61678e-06
2.8004e-06
3.02098e-06
3.43587e-06
4.29158e-06
5.68107e-06
7.67761e-06
9.93725e-06
1.2454e-05
1.51821e-05
1.80573e-05
2.10043e-05
2.37058e-05
2.61617e-05
2.87135e-05
3.07926e-05
3.25678e-05
3.42194e-05
3.54783e-05
3.60362e-05
3.56636e-05
3.46694e-05
3.31131e-05
3.10572e-05
2.89568e-05
2.78502e-05
2.95152e-05
3.08382e-12
3.11532e-12
3.24205e-12
3.46609e-12
3.79647e-12
4.24937e-12
4.84896e-12
5.62851e-12
6.63224e-12
7.91789e-12
9.56064e-12
1.1658e-11
1.43359e-11
1.77554e-11
2.21215e-11
2.76998e-11
3.48348e-11
4.3968e-11
5.56587e-11
7.05947e-11
8.96107e-11
1.13739e-10
1.44279e-10
1.82867e-10
2.31592e-10
2.93159e-10
3.71142e-10
4.70383e-10
5.97654e-10
7.63106e-10
9.81495e-10
1.27706e-09
1.69553e-09
2.31171e-09
3.2462e-09
4.69548e-09
6.9706e-09
1.04795e-08
1.58716e-08
2.44082e-08
3.77062e-08
5.79658e-08
8.81395e-08
1.31898e-07
1.93379e-07
2.76615e-07
3.84088e-07
5.16128e-07
6.69896e-07
8.39156e-07
1.01579e-06
1.19782e-06
1.4116e-06
1.68408e-06
2.03677e-06
2.50976e-06
3.1276e-06
3.93041e-06
4.91772e-06
6.05484e-06
7.23187e-06
8.36285e-06
9.46241e-06
1.05335e-05
1.13702e-05
1.20207e-05
1.2569e-05
1.30501e-05
1.34586e-05
1.3804e-05
1.4109e-05
1.43962e-05
1.46451e-05
1.48381e-05
1.48855e-05
1.48157e-05
1.47476e-05
1.51947e-05
1.7432e-05
2.34762e-05
3.07915e-12
3.09713e-12
3.21072e-12
3.42206e-12
3.73906e-12
4.17581e-12
4.75328e-12
5.50032e-12
6.45514e-12
7.66743e-12
9.20118e-12
1.11384e-11
1.35835e-11
1.66692e-11
2.05634e-11
2.54802e-11
3.16919e-11
3.95433e-11
4.94661e-11
6.19957e-11
7.77956e-11
9.76998e-11
1.22774e-10
1.54402e-10
1.94405e-10
2.45246e-10
3.10322e-10
3.94463e-10
5.04736e-10
6.51842e-10
8.52305e-10
1.1328e-09
1.53751e-09
2.13707e-09
3.04293e-09
4.42921e-09
6.5615e-09
9.8306e-09
1.48402e-08
2.25279e-08
3.41563e-08
5.13686e-08
7.61771e-08
1.10801e-07
1.57339e-07
2.17294e-07
2.91157e-07
3.78571e-07
4.79188e-07
5.9451e-07
7.30124e-07
9.00559e-07
1.13206e-06
1.45489e-06
1.8986e-06
2.48584e-06
3.23924e-06
4.15144e-06
5.17866e-06
6.25189e-06
7.29009e-06
8.2346e-06
9.05041e-06
9.72049e-06
1.02128e-05
1.05387e-05
1.07349e-05
1.08375e-05
1.08613e-05
1.08465e-05
1.08168e-05
1.08014e-05
1.08434e-05
1.09676e-05
1.1212e-05
1.16103e-05
1.27116e-05
1.57286e-05
2.3435e-05
4.11746e-05
3.07466e-12
3.08237e-12
3.18481e-12
3.38423e-12
3.68764e-12
4.10736e-12
4.66168e-12
5.37573e-12
6.28272e-12
7.42565e-12
8.8595e-12
1.06541e-11
1.28978e-11
1.5702e-11
1.92071e-11
2.35906e-11
2.90765e-11
3.59472e-11
4.4558e-11
5.53559e-11
6.89075e-11
8.59423e-11
1.07417e-10
1.34608e-10
1.69258e-10
2.13795e-10
2.71681e-10
3.4797e-10
4.50204e-10
5.89892e-10
7.84891e-10
1.06338e-09
1.47006e-09
2.07506e-09
2.98738e-09
4.37468e-09
6.49033e-09
9.71154e-09
1.45959e-08
2.19353e-08
3.27658e-08
4.83495e-08
7.00777e-08
9.92777e-08
1.3696e-07
1.83626e-07
2.39447e-07
3.04904e-07
3.82082e-07
4.76508e-07
5.99311e-07
7.69794e-07
1.01667e-06
1.37642e-06
1.88862e-06
2.585e-06
3.4813e-06
4.5567e-06
5.7492e-06
6.96849e-06
8.12067e-06
9.13106e-06
9.9543e-06
1.0576e-05
1.10018e-05
1.12537e-05
1.13606e-05
1.1349e-05
1.12812e-05
1.11653e-05
1.1048e-05
1.09798e-05
1.10364e-05
1.12996e-05
1.19057e-05
1.31586e-05
1.63018e-05
2.38727e-05
4.10236e-05
7.60433e-05
3.07307e-12
3.07115e-12
3.1636e-12
3.35207e-12
3.6426e-12
4.04596e-12
4.5782e-12
5.26145e-12
6.12488e-12
7.20616e-12
8.55326e-12
1.02268e-11
1.23032e-11
1.48784e-11
1.80733e-11
2.20401e-11
2.69714e-11
3.31107e-11
4.07682e-11
5.03408e-11
6.23436e-11
7.74554e-11
9.65879e-11
1.20989e-10
1.524e-10
1.93301e-10
2.47288e-10
3.19678e-10
4.18456e-10
5.55799e-10
7.50489e-10
1.03171e-09
1.44488e-09
2.06025e-09
2.98569e-09
4.38481e-09
6.50182e-09
9.69324e-09
1.44644e-08
2.14901e-08
3.16e-08
4.57314e-08
6.48016e-08
8.95468e-08
1.20394e-07
1.57529e-07
2.01221e-07
2.52734e-07
3.15495e-07
3.97015e-07
5.11209e-07
6.81154e-07
9.41442e-07
1.33832e-06
1.92384e-06
2.74085e-06
3.80406e-06
5.08151e-06
6.49096e-06
7.92057e-06
9.26155e-06
1.04332e-05
1.13888e-05
1.21144e-05
1.26196e-05
1.29276e-05
1.30669e-05
1.3062e-05
1.29925e-05
1.2852e-05
1.27227e-05
1.27006e-05
1.28431e-05
1.33821e-05
1.4774e-05
1.79948e-05
2.51858e-05
4.07211e-05
7.2204e-05
0.000128548
3.07436e-12
3.06333e-12
3.14686e-12
3.32567e-12
3.60477e-12
3.99358e-12
4.50638e-12
5.16288e-12
5.98915e-12
7.01877e-12
8.29444e-12
9.87003e-12
1.18133e-11
1.42094e-11
1.71656e-11
2.08175e-11
2.53372e-11
3.09449e-11
3.79241e-11
4.66445e-11
5.75944e-11
7.14301e-11
8.90487e-11
1.11698e-10
1.41144e-10
1.79927e-10
2.31761e-10
3.02149e-10
3.99359e-10
5.35939e-10
7.31086e-10
1.01429e-09
1.43086e-09
2.04996e-09
2.97651e-09
4.36733e-09
6.4517e-09
9.55409e-09
1.41123e-08
2.06771e-08
2.98976e-08
4.24306e-08
5.88413e-08
7.94956e-08
1.04522e-07
1.33992e-07
1.68183e-07
2.08764e-07
2.59838e-07
3.29943e-07
4.34974e-07
6.02218e-07
8.74705e-07
1.31245e-06
1.98419e-06
2.94385e-06
4.20611e-06
5.72424e-06
7.39204e-06
9.07629e-06
1.0657e-05
1.20527e-05
1.32146e-05
1.41264e-05
1.47945e-05
1.52386e-05
1.54864e-05
1.55693e-05
1.55485e-05
1.54796e-05
1.54639e-05
1.56066e-05
1.61388e-05
1.75069e-05
2.05888e-05
2.7184e-05
4.08587e-05
6.79429e-05
0.000116813
0.000196174
3.07717e-12
3.05831e-12
3.13442e-12
3.3053e-12
3.57504e-12
3.952e-12
4.44906e-12
5.08415e-12
5.881e-12
6.87024e-12
8.09076e-12
9.59164e-12
1.14346e-11
1.36975e-11
1.64784e-11
1.9902e-11
2.41278e-11
2.93612e-11
3.58704e-11
4.40095e-11
5.42525e-11
6.72447e-11
8.38774e-11
1.05401e-10
1.33597e-10
1.71037e-10
2.21479e-10
2.90488e-10
3.8638e-10
5.21693e-10
7.15441e-10
9.96527e-10
1.40885e-09
2.01869e-09
2.92495e-09
4.27236e-09
6.26659e-09
9.18838e-09
1.34015e-08
1.93501e-08
2.75102e-08
3.83221e-08
5.2095e-08
6.8939e-08
8.87841e-08
1.11883e-07
1.37976e-07
1.69232e-07
2.09794e-07
2.68585e-07
3.63032e-07
5.24961e-07
8.07626e-07
1.28815e-06
2.05676e-06
3.17768e-06
4.66663e-06
6.46007e-06
8.42638e-06
1.04125e-05
1.22903e-05
1.39807e-05
1.54256e-05
1.66007e-05
1.75064e-05
1.81586e-05
1.85858e-05
1.88299e-05
1.89559e-05
1.90602e-05
1.92908e-05
1.98664e-05
2.12039e-05
2.40839e-05
3.00017e-05
4.18263e-05
6.4503e-05
0.00010531
0.000172519
0.000273663
3.08016e-12
3.05544e-12
3.12609e-12
3.29122e-12
3.55421e-12
3.92263e-12
4.4084e-12
5.0282e-12
5.80418e-12
6.76496e-12
7.94689e-12
9.39587e-12
1.11697e-11
1.33412e-11
1.60028e-11
1.9272e-11
2.33002e-11
2.8284e-11
3.44814e-11
4.22363e-11
5.20128e-11
6.44466e-11
8.04201e-11
1.01175e-10
1.2848e-10
1.64885e-10
2.14108e-10
2.81618e-10
3.75529e-10
5.0797e-10
6.97139e-10
9.70387e-10
1.36871e-09
1.95312e-09
2.81298e-09
4.07623e-09
5.92067e-09
8.58238e-09
1.23551e-08
1.75752e-08
2.45779e-08
3.36332e-08
4.48768e-08
5.82702e-08
7.36665e-08
9.11593e-08
1.10606e-07
1.33872e-07
1.64888e-07
2.12407e-07
2.94679e-07
4.47517e-07
7.34828e-07
1.2523e-06
2.11118e-06
3.40799e-06
5.14139e-06
7.24045e-06
9.54911e-06
1.18945e-05
1.41403e-05
1.62131e-05
1.80316e-05
1.9559e-05
2.07894e-05
2.1737e-05
2.24359e-05
2.29426e-05
2.3347e-05
2.37919e-05
2.45091e-05
2.58836e-05
2.85914e-05
3.38587e-05
4.39115e-05
6.26017e-05
9.57845e-05
0.000150829
0.000235139
0.000354779
3.08223e-12
3.05413e-12
3.12171e-12
3.28361e-12
3.54283e-12
3.90646e-12
4.38586e-12
4.997e-12
5.76113e-12
6.70569e-12
7.86559e-12
9.28484e-12
1.10189e-11
1.31379e-11
1.57304e-11
1.89098e-11
2.28222e-11
2.7658e-11
3.36679e-11
4.11871e-11
5.06692e-11
6.27361e-11
7.82521e-11
9.84315e-11
1.24999e-10
1.60428e-10
2.08303e-10
2.73851e-10
3.64757e-10
4.92375e-10
6.73539e-10
9.3321e-10
1.30827e-09
1.8527e-09
2.64424e-09
3.79199e-09
5.44373e-09
7.78948e-09
1.10567e-08
1.54914e-08
2.1319e-08
2.86926e-08
3.76411e-08
4.80505e-08
5.97202e-08
7.2549e-08
8.66291e-08
1.03287e-07
1.25939e-07
1.62601e-07
2.31216e-07
3.69785e-07
6.51599e-07
1.19202e-06
2.12724e-06
3.57565e-06
5.57072e-06
8.00187e-06
1.07023e-05
1.34752e-05
1.61735e-05
1.87365e-05
2.10372e-05
2.30271e-05
2.4696e-05
2.60586e-05
2.71605e-05
2.80814e-05
2.89512e-05
2.99801e-05
3.1516e-05
3.41436e-05
3.88576e-05
4.73847e-05
6.26393e-05
8.91693e-05
0.000133119
0.00020135
0.00030002
0.000433498
3.08269e-12
3.05404e-12
3.12116e-12
3.2826e-12
3.54124e-12
3.90407e-12
4.38228e-12
4.99166e-12
5.75318e-12
6.6939e-12
7.84824e-12
9.25954e-12
1.09824e-11
1.30855e-11
1.56559e-11
1.88045e-11
2.26743e-11
2.7451e-11
3.33792e-11
4.0785e-11
5.0109e-11
6.19539e-11
7.71537e-11
9.68759e-11
1.22771e-10
1.57189e-10
2.03506e-10
2.66596e-10
3.53537e-10
4.74647e-10
6.44995e-10
8.86582e-10
1.23137e-09
1.72534e-09
2.43346e-09
3.44511e-09
4.87842e-09
6.88102e-09
9.62321e-09
1.32794e-08
1.79956e-08
2.38483e-08
3.08071e-08
3.87245e-08
4.7379e-08
5.66069e-08
6.64808e-08
7.79396e-08
9.36818e-08
1.20495e-07
1.74705e-07
2.93317e-07
5.54779e-07
1.09349e-06
2.07596e-06
3.63683e-06
5.855e-06
8.66678e-06
1.18075e-05
1.50868e-05
1.83304e-05
2.15179e-05
2.44308e-05
2.70251e-05
2.92845e-05
3.12257e-05
3.29116e-05
3.44546e-05
3.60369e-05
3.79538e-05
4.06914e-05
4.50588e-05
5.23778e-05
6.48387e-05
8.58625e-05
0.00012033
0.000174221
0.000253561
0.000363095
0.000505357
3.08136e-12
3.05506e-12
3.12442e-12
3.28821e-12
3.54955e-12
3.91564e-12
4.39795e-12
5.01256e-12
5.78081e-12
6.73017e-12
7.89549e-12
9.32061e-12
1.10605e-11
1.31842e-11
1.57788e-11
1.89547e-11
2.28531e-11
2.76567e-11
3.36044e-11
4.10128e-11
5.03068e-11
6.20642e-11
7.70802e-11
9.64606e-11
1.21758e-10
1.55166e-10
1.99809e-10
2.60143e-10
3.42555e-10
4.56202e-10
6.1422e-10
8.35415e-10
1.14656e-09
1.58541e-09
2.20423e-09
3.07343e-09
4.28403e-09
5.94685e-09
8.18549e-09
1.11204e-08
1.48431e-08
1.93846e-08
2.46885e-08
3.06046e-08
3.69214e-08
4.34581e-08
5.02308e-08
5.7854e-08
6.82929e-08
8.68854e-08
1.26904e-07
2.21191e-07
4.46356e-07
9.48749e-07
1.92888e-06
3.56844e-06
5.95289e-06
9.07156e-06
1.27679e-05
1.66406e-05
2.05538e-05
2.44955e-05
2.81757e-05
3.15567e-05
3.46059e-05
3.7341e-05
3.98473e-05
4.22767e-05
4.48721e-05
4.80213e-05
5.23522e-05
5.88946e-05
6.92618e-05
8.59824e-05
0.000112773
0.000154546
0.000216865
0.000304793
0.000421585
0.000567891
3.07854e-12
3.05737e-12
3.13155e-12
3.30043e-12
3.56764e-12
3.94097e-12
4.43257e-12
5.05936e-12
5.84366e-12
6.8142e-12
8.00729e-12
9.46847e-12
1.12546e-11
1.34369e-11
1.61043e-11
1.93687e-11
2.33721e-11
2.82959e-11
3.4375e-11
4.19166e-11
5.1329e-11
6.31618e-11
7.81648e-11
9.73731e-11
1.2223e-10
1.54764e-10
1.97835e-10
2.55489e-10
3.33442e-10
4.39751e-10
5.85736e-10
7.87199e-10
1.06606e-09
1.4524e-09
1.98685e-09
2.72288e-09
3.72804e-09
5.08265e-09
6.8737e-09
9.18236e-09
1.20645e-08
1.55275e-08
1.95109e-08
2.3882e-08
2.84588e-08
3.30733e-08
3.76951e-08
4.26896e-08
4.93733e-08
6.16038e-08
8.91068e-08
1.57905e-07
3.34898e-07
7.64219e-07
1.67393e-06
3.30074e-06
5.80973e-06
9.1888e-06
1.33042e-05
1.80073e-05
2.27593e-05
2.75126e-05
3.21851e-05
3.65911e-05
4.06857e-05
4.44915e-05
4.81145e-05
5.17506e-05
5.57053e-05
6.04553e-05
6.67584e-05
7.58082e-05
8.94517e-05
0.000110418
0.000142527
0.000190553
0.000259555
0.000353625
0.000474523
0.000620994
3.07507e-12
3.0614e-12
3.14271e-12
3.31914e-12
3.59515e-12
3.97944e-12
4.48527e-12
5.13092e-12
5.94047e-12
6.94475e-12
8.1827e-12
9.70304e-12
1.15664e-11
1.38482e-11
1.66419e-11
2.00641e-11
2.42608e-11
2.94156e-11
3.57625e-11
4.36026e-11
5.33291e-11
6.54637e-11
8.07096e-11
1.00029e-10
1.24757e-10
1.56762e-10
1.98674e-10
2.54197e-10
3.28525e-10
4.28891e-10
5.65256e-10
7.51139e-10
1.00464e-09
1.34964e-09
1.81723e-09
2.44697e-09
3.2874e-09
4.3947e-09
5.8281e-09
7.64078e-09
9.86625e-09
1.25021e-08
1.54967e-08
1.87452e-08
2.21052e-08
2.54384e-08
2.8692e-08
3.20592e-08
3.63459e-08
4.40922e-08
6.18064e-08
1.07781e-07
2.33218e-07
5.62885e-07
1.32898e-06
2.82143e-06
5.3002e-06
8.87815e-06
1.34242e-05
1.86979e-05
2.46403e-05
3.05149e-05
3.63714e-05
4.20583e-05
4.75247e-05
5.27448e-05
5.78492e-05
6.30781e-05
6.87867e-05
7.55261e-05
8.41519e-05
9.59783e-05
0.000112977
0.000137978
0.00017479
0.000227997
0.000302183
0.000400575
0.000523495
0.000667717
3.0721e-12
3.06778e-12
3.15808e-12
3.34417e-12
3.6315e-12
4.03001e-12
4.55451e-12
5.22525e-12
6.06882e-12
7.11922e-12
8.4194e-12
1.0023e-11
1.19969e-11
1.44234e-11
1.74046e-11
2.10661e-11
2.55629e-11
3.10874e-11
3.78791e-11
4.62396e-11
5.65537e-11
6.93206e-11
8.52017e-11
1.05091e-10
1.30222e-10
1.62326e-10
2.03855e-10
2.58304e-10
3.30624e-10
4.27736e-10
5.59107e-10
7.37383e-10
9.78876e-10
1.30402e-09
1.73792e-09
2.3108e-09
3.05801e-09
4.01871e-09
5.23249e-09
6.7335e-09
8.54177e-09
1.06527e-08
1.30289e-08
1.55961e-08
1.82519e-08
2.08928e-08
2.34636e-08
2.60485e-08
2.90844e-08
3.40636e-08
4.50729e-08
7.3516e-08
1.53319e-07
3.77038e-07
9.45983e-07
2.17687e-06
4.41412e-06
7.94204e-06
1.28191e-05
1.88057e-05
2.55643e-05
3.31494e-05
4.05096e-05
4.78845e-05
5.51256e-05
6.21951e-05
6.92388e-05
7.65278e-05
8.44664e-05
9.36543e-05
0.000104998
0.000119879
0.000140338
0.000169241
0.000210361
0.000268159
0.000346942
0.00044935
0.000574471
0.000716928
3.07101e-12
3.07718e-12
3.1779e-12
3.37528e-12
3.6759e-12
4.09121e-12
4.63804e-12
5.33928e-12
6.22486e-12
7.33319e-12
8.71285e-12
1.04248e-11
1.25448e-11
1.51667e-11
1.84059e-11
2.2404e-11
2.73336e-11
3.34054e-11
4.08766e-11
5.00624e-11
6.13527e-11
7.52381e-11
9.23498e-11
1.13524e-10
1.39907e-10
1.73112e-10
2.15477e-10
2.7043e-10
3.43009e-10
4.40546e-10
5.73433e-10
7.55763e-10
1.00558e-09
1.34453e-09
1.79774e-09
2.39382e-09
3.16455e-09
4.14353e-09
5.36321e-09
6.85104e-09
8.62417e-09
1.06803e-08
1.29887e-08
1.54959e-08
1.81305e-08
2.08132e-08
2.34838e-08
2.615e-08
2.90179e-08
3.28054e-08
4.00162e-08
5.69825e-08
1.03584e-07
2.36984e-07
6.01201e-07
1.47595e-06
3.25067e-06
6.37094e-06
1.11805e-05
1.77171e-05
2.5655e-05
3.45225e-05
4.43267e-05
5.39224e-05
6.35957e-05
7.31428e-05
8.27178e-05
9.26876e-05
0.000103503
0.000115769
0.000130405
0.00014883
0.000173144
0.000206262
0.000252015
0.000315022
0.000399867
0.000509417
0.000642415
0.000791755
3.07328e-12
3.09015e-12
3.20243e-12
3.41229e-12
3.72743e-12
4.16116e-12
4.73285e-12
5.46867e-12
6.40291e-12
7.57968e-12
9.05519e-12
1.09004e-11
1.32041e-11
1.6077e-11
1.96554e-11
2.41064e-11
2.96331e-11
3.64809e-11
4.49441e-11
5.53749e-11
6.81944e-11
8.39108e-11
1.0315e-10
1.26711e-10
1.55662e-10
1.91512e-10
2.36505e-10
2.94114e-10
3.69798e-10
4.72148e-10
6.14395e-10
8.15939e-10
1.10293e-09
1.50676e-09
2.06342e-09
2.81347e-09
3.80133e-09
5.07353e-09
6.67271e-09
8.63528e-09
1.09915e-08
1.37507e-08
1.68963e-08
2.03847e-08
2.41453e-08
2.80942e-08
3.21504e-08
3.62583e-08
4.04509e-08
4.50668e-08
5.17518e-08
6.32189e-08
8.93808e-08
1.63899e-07
3.68685e-07
8.84263e-07
2.05141e-06
4.38415e-06
8.49576e-06
1.4923e-05
2.38094e-05
3.46988e-05
4.70037e-05
6.00916e-05
7.33399e-05
8.65197e-05
9.96804e-05
0.000113306
0.000127968
0.000144317
0.000163277
0.000186266
0.000215516
0.00025418
0.000306315
0.000377383
0.000473848
0.000601852
0.000764629
0.000952217
3.07625e-12
3.10656e-12
3.23216e-12
3.45538e-12
3.78532e-12
4.23772e-12
4.83513e-12
5.60772e-12
6.59502e-12
7.84838e-12
9.43382e-12
1.14357e-11
1.39608e-11
1.71438e-11
2.11522e-11
2.61927e-11
3.25177e-11
4.04323e-11
5.03006e-11
6.25512e-11
7.76828e-11
9.62721e-11
1.1899e-10
1.46636e-10
1.80221e-10
2.2113e-10
2.7146e-10
3.34668e-10
4.16724e-10
5.28121e-10
6.87207e-10
9.24731e-10
1.2874e-09
1.83341e-09
2.63276e-09
3.77092e-09
5.34916e-09
7.4854e-09
1.02931e-08
1.38781e-08
1.83205e-08
2.36679e-08
2.99262e-08
3.70402e-08
4.48868e-08
5.32872e-08
6.20269e-08
7.08515e-08
7.95737e-08
8.81485e-08
9.73873e-08
1.09757e-07
1.31984e-07
1.77587e-07
2.90476e-07
5.74044e-07
1.22057e-06
2.57472e-06
5.28035e-06
1.04298e-05
1.91837e-05
3.18616e-05
4.7958e-05
6.68206e-05
8.65219e-05
0.000106182
0.000125347
0.000144661
0.000165119
0.000187506
0.000212849
0.000242638
0.000279466
0.000327624
0.000391264
0.000477827
0.000599352
0.000772382
0.00100873
0.0012887
3.0783e-12
3.12748e-12
3.26887e-12
3.50572e-12
3.84931e-12
4.31864e-12
4.94042e-12
5.74922e-12
6.7907e-12
8.12484e-12
9.82986e-12
1.20073e-11
1.47881e-11
1.83402e-11
2.28754e-11
2.86597e-11
3.60227e-11
4.53669e-11
5.71773e-11
7.20259e-11
9.05707e-11
1.13552e-10
1.41786e-10
1.76166e-10
2.17699e-10
2.67621e-10
3.2771e-10
4.01064e-10
4.93624e-10
6.17313e-10
7.96681e-10
1.08133e-09
1.56344e-09
2.36063e-09
3.6246e-09
5.56279e-09
8.44511e-09
1.26318e-08
1.84985e-08
2.645e-08
3.68613e-08
5.00102e-08
6.60041e-08
8.47349e-08
1.05848e-07
1.28699e-07
1.52429e-07
1.7615e-07
1.99241e-07
2.21048e-07
2.42644e-07
2.66999e-07
3.01394e-07
3.61421e-07
4.71227e-07
6.69124e-07
1.02781e-06
1.76758e-06
3.2094e-06
6.1076e-06
1.23312e-05
2.54014e-05
4.70588e-05
7.72149e-05
0.000113459
0.000150454
0.000185682
0.000218745
0.000251754
0.000286061
0.000323321
0.000365139
0.000414674
0.000484805
0.000577787
0.000703492
0.000885719
0.00116614
0.00159612
0.0024488
3.07924e-12
3.15727e-12
3.31706e-12
3.56657e-12
3.92034e-12
4.40169e-12
5.04368e-12
5.88456e-12
6.97659e-12
8.38964e-12
1.02165e-11
1.25797e-11
1.56406e-11
1.96145e-11
2.47699e-11
3.14609e-11
4.01353e-11
5.13455e-11
6.57785e-11
8.42588e-11
1.07746e-10
1.37322e-10
1.74149e-10
2.19427e-10
2.74335e-10
3.40028e-10
4.17697e-10
5.0944e-10
6.19683e-10
7.58616e-10
9.52397e-10
1.27e-09
1.90612e-09
3.09759e-09
5.16979e-09
8.63441e-09
1.41986e-08
2.30086e-08
3.62908e-08
5.55864e-08
8.25124e-08
1.18498e-07
1.64452e-07
2.20455e-07
2.85491e-07
3.57244e-07
4.32441e-07
5.07677e-07
5.81107e-07
6.49319e-07
7.1679e-07
7.93068e-07
8.95175e-07
1.06298e-06
1.3287e-06
1.73541e-06
2.33267e-06
3.05364e-06
3.85934e-06
5.06436e-06
8.77729e-06
2.22381e-05
5.161e-05
0.000104059
0.000182354
0.000278754
0.00038117
0.000483041
0.00058426
0.000686028
0.000792544
0.000905276
0.00102867
0.00117706
0.00136912
0.00163106
0.00199872
0.0026491
0.00372719
0.00794823
0.000134596
0.000170472
0.000244798
0.000347785
0.000474587
0.000622547
0.000792471
0.000955392
0.00108965
0.00122208
0.00134312
0.00145393
0.00165965
0.00219281
0.00307447
0.00450016
0.00651611
0.00923105
0.0128119
0.0174442
0.022527
0.0281206
0.034099
0.0405239
0.0473417
0.054576
0.0622077
0.0702367
0.0786435
0.0874185
0.0965279
0.105913
0.115548
0.12563
0.135941
0.145176
0.154014
0.162977
0.171772
0.180843
0.18985
0.198607
0.207069
0.215197
0.222946
0.230281
0.237197
0.243728
0.249824
0.255455
0.260547
0.264992
0.268715
0.271691
0.274006
0.275719
0.276833
0.277349
0.277271
0.27661
0.27538
0.2736
0.271295
0.268493
0.265228
0.261537
0.257455
0.253015
0.248244
0.243162
0.237782
0.232139
0.226142
0.219923
0.213949
0.208477
0.205277
0.206698
0.209732
0.213293
0.216756
0.220195
0.223634
0.226886
0.229883
0.232828
0.235624
0.238443
0.241161
0.244122
0.247468
0.250438
0.253102
0.255597
0.258006
0.260366
0.262697
0.26501
0.267306
0.269583
0.271838
0.274068
0.27627
0.278438
0.280565
0.282645
0.284673
0.286646
0.288561
0.290413
0.292198
0.293911
0.295546
0.297101
0.298574
0.299962
0.301261
0.302469
0.303584
0.304604
0.305525
0.306345
0.307063
0.307673
0.308176
0.308566
0.308846
0.309003
0.309052
0.30891
0.308627
0.308409
0.308034
0.30739
0.306529
0.30582
0.304939
0.304116
0.303225
0.302269
0.301295
0.300255
0.299148
0.297977
0.296741
0.295445
0.294089
0.292685
0.291236
0.289752
0.288253
0.28672
0.28512
0.283536
0.281974
0.280421
0.27888
0.277364
0.27588
0.27443
0.273018
0.271645
0.270309
0.269008
0.267739
0.266498
0.265281
0.264088
0.262922
0.261785
0.260672
0.259581
0.258514
0.257474
0.256461
0.255475
0.254514
0.253579
0.252672
0.251794
0.250948
0.250139
0.249369
0.248632
0.247924
0.247241
0.246577
0.245928
0.245286
0.244649
0.244015
0.243386
0.242766
0.242161
0.241578
0.241023
0.240495
0.239993
0.239512
0.239051
0.238609
0.238189
0.237796
0.237431
0.237092
0.236776
0.236473
0.236176
0.235874
0.235562
0.23524
0.234912
0.234581
0.234255
0.233939
0.233641
0.233366
0.233113
0.23288
0.232661
0.232455
0.232259
0.232075
0.231905
0.231752
0.231614
0.23149
0.231373
0.231259
0.23114
0.23101
0.230866
0.230713
0.230555
0.230399
0.230255
0.23013
0.230027
0.229946
0.229883
0.22983
0.22978
0.22973
0.22968
0.229633
0.229594
0.229563
0.229542
0.229527
0.229512
0.229493
0.229467
0.22943
0.229384
0.229333
0.229283
0.229236
0.229198
0.229172
0.229159
0.22916
0.229173
0.229194
0.229217
0.229234
0.229245
0.229252
0.22926
0.229277
0.229303
0.229337
0.229371
0.229399
0.229418
0.229428
0.229431
0.229432
0.229437
0.229449
0.229471
0.229502
0.229542
0.229589
0.229639
0.22969
0.229738
0.229781
0.229816
0.229842
0.229863
0.229882
0.229907
0.229938
0.229977
0.230019
0.230056
0.230083
0.230101
0.230112
0.230125
0.230143
0.230169
0.230202
0.23024
0.230277
0.230312
0.230343
0.230368
0.230387
0.2304
0.230408
0.230412
0.230413
0.230413
0.230417
0.230425
0.230439
0.230455
0.230467
0.230469
0.23046
0.230445
0.230429
0.230418
0.230415
0.230418
0.230425
0.230426
0.230414
0.230389
0.230355
0.230317
0.230276
0.230235
0.230193
0.230152
0.230112
0.230072
0.230032
0.229992
0.229948
0.229896
0.229832
0.229757
0.229676
0.229593
0.229512
0.229435
0.22936
0.229282
0.229193
0.22909
0.228973
0.22885
0.228726
0.228606
0.228487
0.228368
0.228246
0.228118
0.227985
0.227847
0.227704
0.227555
0.2274
0.227236
0.227065
0.226889
0.22671
0.226531
0.226352
0.226171
0.225984
0.225789
0.225584
0.225368
0.225146
0.224923
0.224702
0.224482
0.224261
0.224034
0.223796
0.22355
0.223295
0.223035
0.222771
0.222502
0.222229
0.22195
0.221665
0.221377
0.221084
0.220789
0.220489
0.220184
0.219872
0.219551
0.219223
0.218888
0.21855
0.21821
0.217869
0.217523
0.217171
0.21681
0.21644
0.216061
0.215677
0.215289
0.214899
0.214505
0.214106
0.213701
0.21329
0.212873
0.212452
0.212025
0.211593
0.211156
0.210711
0.21026
0.209803
0.209342
0.208877
0.208407
0.207933
0.207454
0.206967
0.206473
0.205971
0.205465
0.204954
0.204441
0.203924
0.203402
0.202873
0.202339
0.201797
0.201251
0.200699
0.200144
0.199583
0.199017
0.198446
0.197869
0.197287
0.196701
0.196111
0.195517
0.194915
0.194307
0.193692
0.19307
0.192443
0.191828
0.191201
0.190643
0.189912
0.189302
0.188439
0.187855
0.187162
0.186543
0.18585
0.185159
0.184473
0.183791
0.18311
0.182427
0.181743
0.181056
0.180367
0.179674
0.178977
0.178276
0.177568
0.176859
0.176145
0.175431
0.17471
0.173988
0.17327
0.172505
0.171815
0.171106
0.170008
0.169363
0.16892
0.167764
0.166913
0.166268
0.165554
0.164814
0.164062
0.163306
0.162545
0.161779
0.161007
0.160228
0.159445
0.158658
0.157868
0.157077
0.156283
0.15549
0.154692
0.15389
0.153083
0.152271
0.151455
0.150635
0.149812
0.148984
0.148155
0.14732
0.146474
0.14562
0.144757
0.143892
0.143018
0.142144
0.141274
0.140409
0.13955
0.138694
0.137842
0.136994
0.136148
0.135305
0.134463
0.133622
0.132781
0.131942
0.131102
0.130262
0.129423
0.128582
0.127742
0.126901
0.12606
0.125219
0.124378
0.123536
0.122694
0.121852
0.12101
0.120168
0.119326
0.118485
0.117644
0.116803
0.115964
0.115125
0.114287
0.11345
0.112614
0.11178
0.110947
0.110115
0.109283
0.108453
0.107623
0.106794
0.105967
0.105143
0.10432
0.103501
0.102685
0.101872
0.101062
0.100257
0.0994544
0.0986561
0.0978617
0.0970714
0.096285
0.0955027
0.0947241
0.0939488
0.0931765
0.0924071
0.0916406
0.0908772
0.0901174
0.0893621
0.0886125
0.0878693
0.0871323
0.0864018
0.0856769
0.0849583
0.084244
0.0835349
0.0828264
0.0821219
0.0814197
0.0807249
0.080036
0.0793563
0.0786845
0.0780216
0.0773662
0.0767173
0.0760731
0.0754317
0.0747936
0.0741602
0.0735322
0.0729102
0.0722945
0.0716853
0.0710828
0.0704872
0.0698984
0.0693166
0.0687417
0.0681739
0.0676131
0.0670594
0.0665127
0.0659732
0.0654408
0.0649155
0.0643976
0.063887
0.0633838
0.0628881
0.0623999
0.0619194
0.0614466
0.0609817
0.0605245
0.0600753
0.0596339
0.0592005
0.0587751
0.0583577
0.0579483
0.057547
0.0571537
0.0567686
0.0563917
0.0560229
0.0556624
0.0553102
0.0549663
0.0546307
0.0543035
0.0539848
0.0536745
0.0533728
0.0530796
0.052795
0.0525189
0.0522515
0.0519928
0.0517427
0.0515012
0.0512685
0.0510445
0.0508292
0.0506226
0.0504248
0.050236
0.0500557
0.0498838
0.04972
0.049564
0.0494159
0.0492758
0.0491438
0.0490198
0.0489037
0.0487954
0.0486948
0.0486021
0.0485175
0.0484411
0.048373
0.0483133
0.0482615
0.0482179
0.0481824
0.0481551
0.048136
0.048125
0.0481223
0.0481276
0.048141
0.0481623
0.0481914
0.0482282
0.0482725
0.0483242
0.0483827
0.0484481
0.0485199
0.0485972
0.0486826
0.0487746
0.0488723
0.048975
0.049082
0.0491932
0.0493083
0.0494264
0.0495465
0.0496677
0.0497892
0.0499105
0.0500305
0.050148
0.0502616
0.05037
0.0504711
0.0505638
0.0506451
0.0507152
0.0507665
3.76564e-05
5.61658e-05
9.37805e-05
0.000159722
0.000250319
0.000373749
0.000534728
0.000737746
0.000988249
0.00129358
0.00165339
0.00211207
0.00275507
0.00361404
0.00464931
0.00585378
0.00723755
0.00877991
0.0105251
0.012696
0.0150295
0.0171976
0.0195123
0.0219055
0.0243697
0.0269101
0.029537
0.0322595
0.0350735
0.0379692
0.0409333
0.0439438
0.0470166
0.0501104
0.0532111
0.0562482
0.0592751
0.062317
0.0653619
0.0684187
0.0714584
0.074474
0.0774621
0.0804169
0.0833328
0.0862207
0.0891266
0.0921408
0.095166
0.0981674
0.101131
0.104004
0.106733
0.109239
0.11157
0.113753
0.115786
0.117663
0.119375
0.120915
0.122276
0.123453
0.124444
0.125244
0.125855
0.126276
0.126507
0.12655
0.126403
0.126059
0.125526
0.124817
0.123937
0.122901
0.121786
0.120711
0.119951
0.119758
0.119863
0.120026
0.120163
0.120211
0.120174
0.120065
0.119895
0.119588
0.119183
0.118684
0.118033
0.117501
0.117057
0.116629
0.116193
0.115715
0.115194
0.114644
0.114079
0.113507
0.112935
0.112369
0.111811
0.111265
0.110732
0.110219
0.109722
0.109242
0.108775
0.108322
0.107882
0.107455
0.107044
0.106647
0.106264
0.105895
0.105539
0.105199
0.104876
0.10457
0.104272
0.104002
0.103721
0.103492
0.103212
0.103024
0.10273
0.10258
0.102263
0.102141
0.101802
0.101655
0.101275
0.101132
0.100796
0.100674
0.100352
0.100228
0.0999712
0.0998576
0.0996504
0.0995433
0.099376
0.0992991
0.0990845
0.0989979
0.0987605
0.0986658
0.0984165
0.098304
0.0980442
0.0979091
0.0976363
0.0974994
0.0972062
0.0969769
0.0967095
0.0965182
0.0962716
0.096076
0.0958484
0.0956283
0.0954135
0.0952054
0.0950016
0.094803
0.0946111
0.0944247
0.0942429
0.0940623
0.0938908
0.0937236
0.0935571
0.0933827
0.0932029
0.0930233
0.0928436
0.0926666
0.0924877
0.092314
0.0921398
0.0919602
0.0917803
0.091606
0.0914394
0.0912832
0.0911408
0.0910089
0.0908823
0.0907587
0.0906373
0.0905144
0.0903855
0.0902512
0.090114
0.0899758
0.0898371
0.0897002
0.0895676
0.0894403
0.0893178
0.0891996
0.0890845
0.0889718
0.0888619
0.0887577
0.0886616
0.0885741
0.0884939
0.0884197
0.0883496
0.0882796
0.0882021
0.0881137
0.0880174
0.0879164
0.0878144
0.0877156
0.0876232
0.0875377
0.0874591
0.087385
0.0873117
0.0872394
0.0871703
0.0871058
0.0870477
0.0869957
0.0869513
0.0869111
0.086872
0.0868342
0.0867976
0.086759
0.0867135
0.0866636
0.0866106
0.0865541
0.0864986
0.0864517
0.0864166
0.0863899
0.0863666
0.0863424
0.0863153
0.0862865
0.0862592
0.0862367
0.0862202
0.0862083
0.0861975
0.0861849
0.0861684
0.0861478
0.0861247
0.0861024
0.0860811
0.0860605
0.0860425
0.0860284
0.0860185
0.0860127
0.0860118
0.0860091
0.0860102
0.0860081
0.0860069
0.0860033
0.0860006
0.0860005
0.0860034
0.0860108
0.08602
0.0860269
0.0860294
0.0860293
0.0860265
0.0860277
0.0860291
0.0860316
0.0860373
0.0860469
0.0860596
0.0860734
0.0860874
0.0861006
0.0861124
0.0861224
0.0861307
0.0861379
0.0861452
0.0861536
0.0861638
0.086176
0.0861898
0.0862041
0.0862179
0.08623
0.0862404
0.08625
0.0862614
0.0862732
0.0862877
0.0863047
0.0863229
0.0863407
0.0863571
0.0863716
0.0863841
0.086395
0.0864049
0.0864141
0.0864231
0.0864332
0.0864442
0.0864554
0.0864666
0.0864785
0.0864905
0.0865017
0.0865112
0.0865192
0.086531
0.0865411
0.0865501
0.0865579
0.0865625
0.0865701
0.0865789
0.086586
0.0865961
0.0866039
0.0866087
0.0866114
0.0866126
0.0866132
0.0866141
0.0866154
0.0866171
0.0866193
0.0866217
0.0866235
0.0866249
0.086627
0.0866251
0.086624
0.0866221
0.086617
0.0866081
0.0865983
0.0865887
0.0865809
0.0865739
0.0865687
0.0865595
0.0865485
0.0865305
0.0865097
0.0864889