/*--------------------------------*- C++ -*----------------------------------*\
| =========                 |                                                 |
| \\      /  F ield         | OpenFOAM: The Open Source CFD Toolbox           |
|  \\    /   O peration     | Version:  2412                                  |
|   \\  /    A nd           | Website:  www.openfoam.com                      |
|    \\/     M anipulation  |                                                 |
\*---------------------------------------------------------------------------*/
FoamFile
{
    version     2.0;
    format      ascii;
    arch        "LSB;label=32;scalar=64";
    class       volScalarField;
    location    "2000";
    object      k;
}
// * * * * * * * * * * * * * * * * * * * * * * * * * * * * * * * * * * * * * //

dimensions      [0 2 -2 0 0 0 0];

internalField   nonuniform List<scalar> 
150400
(
2.85314e-10
2.90232e-10
3.00015e-10
3.14842e-10
3.3509e-10
3.61479e-10
3.95119e-10
4.37357e-10
4.8983e-10
5.54502e-10
6.3383e-10
7.30899e-10
8.49457e-10
9.93855e-10
1.16885e-09
1.3808e-09
1.63827e-09
1.9514e-09
2.33351e-09
2.79851e-09
3.35716e-09
4.02466e-09
4.81887e-09
5.75944e-09
6.86815e-09
8.17125e-09
9.69769e-09
1.14841e-08
1.35422e-08
1.59858e-08
1.88338e-08
2.19092e-08
2.57438e-08
3.08636e-08
3.79178e-08
4.78388e-08
6.49441e-08
8.87168e-08
1.17503e-07
1.65614e-07
2.36764e-07
3.37386e-07
4.77344e-07
6.6723e-07
9.1833e-07
1.25109e-06
1.66859e-06
2.17791e-06
2.77541e-06
3.44074e-06
4.11904e-06
4.65862e-06
4.98157e-06
5.09591e-06
4.97405e-06
4.66569e-06
4.44296e-06
5.44066e-06
7.22812e-06
1.00379e-05
1.33207e-05
1.6843e-05
2.05762e-05
2.43591e-05
2.80737e-05
3.15852e-05
3.46597e-05
3.79489e-05
3.96941e-05
4.08026e-05
4.1101e-05
4.06693e-05
3.9651e-05
3.81895e-05
3.64669e-05
3.4701e-05
3.31891e-05
3.22433e-05
3.20259e-05
3.31166e-05
2.85148e-10
2.89908e-10
2.99535e-10
3.14216e-10
3.34337e-10
3.60527e-10
3.93697e-10
4.35015e-10
4.8592e-10
5.48146e-10
6.23806e-10
7.15485e-10
8.26301e-10
9.59918e-10
1.12053e-09
1.31332e-09
1.54494e-09
1.82331e-09
2.15793e-09
2.55909e-09
3.03712e-09
3.60404e-09
4.27428e-09
5.06465e-09
5.995e-09
7.08952e-09
8.37763e-09
9.89607e-09
1.16887e-08
1.38312e-08
1.63967e-08
1.94814e-08
2.34149e-08
2.86524e-08
3.58243e-08
4.58964e-08
6.05654e-08
8.07096e-08
1.07766e-07
1.46731e-07
2.01092e-07
2.74911e-07
3.73299e-07
5.01851e-07
6.66608e-07
8.74203e-07
1.12706e-06
1.42658e-06
1.77109e-06
2.15544e-06
2.57051e-06
3.01846e-06
3.52019e-06
4.11777e-06
4.81374e-06
5.65186e-06
6.67073e-06
7.93189e-06
9.34014e-06
1.08294e-05
1.23246e-05
1.37616e-05
1.50753e-05
1.61686e-05
1.72496e-05
1.79538e-05
1.82944e-05
1.85789e-05
1.87081e-05
1.87307e-05
1.87129e-05
1.85829e-05
1.83163e-05
1.79607e-05
1.75365e-05
1.70595e-05
1.66107e-05
1.64078e-05
1.71535e-05
1.98152e-05
2.8492e-10
2.89564e-10
2.99049e-10
3.13554e-10
3.33443e-10
3.59281e-10
3.91855e-10
4.32181e-10
4.81519e-10
5.41391e-10
6.1364e-10
7.00488e-10
8.04587e-10
9.2907e-10
1.07761e-09
1.25465e-09
1.46562e-09
1.71701e-09
2.01642e-09
2.37242e-09
2.79455e-09
3.29398e-09
3.88431e-09
4.5822e-09
5.40842e-09
6.38945e-09
7.55955e-09
8.96412e-09
1.06646e-08
1.27491e-08
1.53376e-08
1.86113e-08
2.28817e-08
2.85986e-08
3.63918e-08
4.71569e-08
6.21273e-08
8.2648e-08
1.10658e-07
1.49312e-07
2.01912e-07
2.7211e-07
3.64165e-07
4.82755e-07
6.32754e-07
8.1908e-07
1.04618e-06
1.3197e-06
1.6477e-06
2.04241e-06
2.52268e-06
3.11376e-06
3.84984e-06
4.75824e-06
5.85566e-06
7.14693e-06
8.63844e-06
1.03013e-05
1.20548e-05
1.38061e-05
1.54571e-05
1.69339e-05
1.81709e-05
1.91248e-05
1.98381e-05
2.02943e-05
2.05133e-05
2.05084e-05
2.04075e-05
2.01698e-05
1.98437e-05
1.93168e-05
1.88067e-05
1.84086e-05
1.81225e-05
1.79885e-05
1.83449e-05
1.95598e-05
2.33537e-05
3.37264e-05
2.84635e-10
2.8921e-10
2.98567e-10
3.12881e-10
3.32489e-10
3.57904e-10
3.89824e-10
4.29147e-10
4.76988e-10
5.34701e-10
6.03919e-10
6.86598e-10
7.85068e-10
9.02094e-10
1.04095e-09
1.20558e-09
1.40073e-09
1.63207e-09
1.90632e-09
2.23137e-09
2.61653e-09
3.07313e-09
3.61534e-09
4.26117e-09
5.03395e-09
5.96442e-09
7.09377e-09
8.47812e-09
1.01952e-08
1.23548e-08
1.51131e-08
1.86981e-08
2.3448e-08
2.98479e-08
3.85741e-08
5.05528e-08
6.70187e-08
8.95587e-08
1.20307e-07
1.62042e-07
2.18029e-07
2.92066e-07
3.88315e-07
5.11189e-07
6.65367e-07
8.55922e-07
1.08886e-06
1.37252e-06
1.71919e-06
2.14664e-06
2.67695e-06
3.33738e-06
4.1603e-06
5.19111e-06
6.46324e-06
7.98229e-06
9.74458e-06
1.16914e-05
1.37346e-05
1.57683e-05
1.76893e-05
1.9411e-05
2.08741e-05
2.2049e-05
2.29365e-05
2.35515e-05
2.39256e-05
2.40821e-05
2.40614e-05
2.39444e-05
2.37008e-05
2.33844e-05
2.30295e-05
2.27738e-05
2.2851e-05
2.34351e-05
2.53038e-05
3.00832e-05
4.07592e-05
6.11431e-05
2.84354e-10
2.88885e-10
2.98115e-10
3.12229e-10
3.31542e-10
3.56521e-10
3.87797e-10
4.2618e-10
4.72673e-10
5.28504e-10
5.95147e-10
6.74375e-10
7.68301e-10
8.79448e-10
1.01083e-09
1.16609e-09
1.3496e-09
1.56666e-09
1.82369e-09
2.12846e-09
2.49054e-09
2.92194e-09
3.43806e-09
4.05898e-09
4.81124e-09
5.73054e-09
6.8654e-09
8.28262e-09
1.00753e-08
1.23747e-08
1.53662e-08
1.93167e-08
2.46073e-08
3.1772e-08
4.15526e-08
5.49588e-08
7.33363e-08
9.84429e-08
1.32545e-07
1.78448e-07
2.39408e-07
3.19034e-07
4.21108e-07
5.49476e-07
7.08095e-07
9.01448e-07
1.13526e-06
1.41748e-06
1.76071e-06
2.1828e-06
2.70827e-06
3.3697e-06
4.21428e-06
5.29674e-06
6.66621e-06
8.35671e-06
1.033e-05
1.25206e-05
1.48274e-05
1.71325e-05
1.93274e-05
2.13269e-05
2.30732e-05
2.45371e-05
2.57126e-05
2.66114e-05
2.72577e-05
2.76799e-05
2.7908e-05
2.79954e-05
2.79925e-05
2.79916e-05
2.80806e-05
2.84525e-05
2.94783e-05
3.18371e-05
3.68479e-05
4.69964e-05
6.56964e-05
9.61924e-05
2.84239e-10
2.88652e-10
2.97731e-10
3.11639e-10
3.30666e-10
3.55236e-10
3.85928e-10
4.23485e-10
4.68831e-10
5.23096e-10
5.87649e-10
6.64134e-10
7.54528e-10
8.61205e-10
9.87027e-10
1.13547e-09
1.31076e-09
1.5181e-09
1.76388e-09
2.05609e-09
2.40479e-09
2.82291e-09
3.32728e-09
3.94019e-09
4.69145e-09
5.62146e-09
6.7855e-09
8.25992e-09
1.01511e-08
1.26085e-08
1.58432e-08
2.01523e-08
2.59551e-08
3.38351e-08
4.45943e-08
5.9316e-08
7.94295e-08
1.06773e-07
1.43635e-07
1.92724e-07
2.57044e-07
3.39703e-07
4.43755e-07
5.72033e-07
7.27063e-07
9.12506e-07
1.13334e-06
1.3977e-06
1.71459e-06
2.10144e-06
2.58794e-06
3.22296e-06
4.06917e-06
5.19885e-06
6.67457e-06
8.5258e-06
1.07193e-05
1.31732e-05
1.57669e-05
1.83732e-05
2.0883e-05
2.32149e-05
2.53123e-05
2.7142e-05
2.86896e-05
2.99557e-05
3.09532e-05
3.17059e-05
3.22483e-05
3.26401e-05
3.29669e-05
3.33683e-05
3.40606e-05
3.54005e-05
3.80076e-05
4.29893e-05
5.23487e-05
6.92201e-05
9.72362e-05
0.000138822
2.84312e-10
2.88532e-10
2.97436e-10
3.11145e-10
3.29912e-10
3.54128e-10
3.84328e-10
4.21204e-10
4.65625e-10
5.18655e-10
5.81587e-10
6.55987e-10
7.43746e-10
8.47153e-10
9.68992e-10
1.11267e-09
1.2824e-09
1.48339e-09
1.72219e-09
2.00709e-09
2.34872e-09
2.76092e-09
3.26188e-09
3.87586e-09
4.63549e-09
5.58512e-09
6.78551e-09
8.32061e-09
1.03072e-08
1.29082e-08
1.63525e-08
2.09597e-08
2.7176e-08
3.56169e-08
4.71195e-08
6.27993e-08
8.41027e-08
1.12841e-07
1.51188e-07
2.01594e-07
2.66602e-07
3.48546e-07
4.4963e-07
5.71942e-07
7.18278e-07
8.89795e-07
1.08789e-06
1.31621e-06
1.5866e-06
1.92077e-06
2.35711e-06
2.95581e-06
3.79983e-06
4.98474e-06
6.59018e-06
8.64546e-06
1.11026e-05
1.38573e-05
1.67716e-05
1.9718e-05
2.25954e-05
2.53311e-05
2.78643e-05
3.01494e-05
3.21568e-05
3.38721e-05
3.52974e-05
3.6454e-05
3.73877e-05
3.81787e-05
3.89615e-05
3.99587e-05
4.15201e-05
4.42205e-05
4.90279e-05
5.75915e-05
7.25551e-05
9.73552e-05
0.00013502
0.000186758
2.84482e-10
2.88499e-10
2.97234e-10
3.10767e-10
3.2932e-10
3.53253e-10
3.83069e-10
4.19426e-10
4.63151e-10
5.15265e-10
5.77014e-10
6.49912e-10
7.35802e-10
8.36929e-10
9.56045e-10
1.09655e-09
1.26265e-09
1.45967e-09
1.69431e-09
1.97516e-09
2.31336e-09
2.72348e-09
3.22478e-09
3.84303e-09
4.61292e-09
5.58162e-09
6.81366e-09
8.39796e-09
1.04577e-08
1.31639e-08
1.67547e-08
2.15609e-08
2.80389e-08
3.68119e-08
4.87172e-08
6.48523e-08
8.66104e-08
1.15675e-07
1.5399e-07
2.03641e-07
2.66738e-07
3.45468e-07
4.4104e-07
5.54066e-07
6.83686e-07
8.31433e-07
9.95154e-07
1.18228e-06
1.40351e-06
1.6826e-06
2.06458e-06
2.62442e-06
3.46974e-06
4.72316e-06
6.48048e-06
8.77085e-06
1.15165e-05
1.45932e-05
1.78496e-05
2.11708e-05
2.4472e-05
2.76918e-05
3.07541e-05
3.35914e-05
3.61533e-05
3.84094e-05
4.03548e-05
4.2014e-05
4.34508e-05
4.47828e-05
4.62105e-05
4.80607e-05
5.08564e-05
5.54432e-05
6.31959e-05
7.6282e-05
9.76995e-05
0.000130588
0.000176948
0.000236934
2.84665e-10
2.88512e-10
2.97112e-10
3.10512e-10
3.28911e-10
3.52645e-10
3.82197e-10
4.18199e-10
4.61454e-10
5.12953e-10
5.73913e-10
6.4582e-10
7.30487e-10
8.30136e-10
9.47506e-10
1.08599e-09
1.24985e-09
1.44445e-09
1.67662e-09
1.95518e-09
2.29158e-09
2.70086e-09
3.20294e-09
3.82444e-09
4.60122e-09
5.58186e-09
6.83267e-09
8.4446e-09
1.05429e-08
1.33005e-08
1.69563e-08
2.18389e-08
2.83973e-08
3.72373e-08
4.91605e-08
6.52014e-08
8.66524e-08
1.15086e-07
1.52217e-07
1.998e-07
2.59382e-07
3.31782e-07
4.17267e-07
5.15385e-07
6.25319e-07
7.4732e-07
8.78861e-07
1.02557e-06
1.19835e-06
1.4224e-06
1.74844e-06
2.26614e-06
3.10966e-06
4.4304e-06
6.33556e-06
8.83713e-06
1.18901e-05
1.52945e-05
1.89019e-05
2.26281e-05
2.64076e-05
3.01946e-05
3.38818e-05
3.73719e-05
4.05924e-05
4.34986e-05
4.60829e-05
4.83806e-05
5.04817e-05
5.25531e-05
5.4877e-05
5.79097e-05
6.23737e-05
6.94117e-05
8.07811e-05
9.89736e-05
0.000126912
0.000167059
0.000220464
0.000286564
2.84793e-10
2.88536e-10
2.97056e-10
3.10381e-10
3.28696e-10
3.52324e-10
3.81735e-10
4.17548e-10
4.6055e-10
5.11717e-10
5.72248e-10
6.43612e-10
7.27604e-10
8.26431e-10
9.4282e-10
1.08016e-09
1.24271e-09
1.43585e-09
1.66646e-09
1.94342e-09
2.27828e-09
2.68621e-09
3.18728e-09
3.80828e-09
4.58517e-09
5.56656e-09
6.81844e-09
8.43079e-09
1.05268e-08
1.32752e-08
1.69073e-08
2.17387e-08
2.81969e-08
3.68529e-08
4.84545e-08
6.39518e-08
8.44989e-08
1.1139e-07
1.46002e-07
1.89627e-07
2.43214e-07
3.07172e-07
3.81314e-07
4.64535e-07
5.55323e-07
6.52398e-07
7.54466e-07
8.64858e-07
9.9374e-07
1.16597e-06
1.43489e-06
1.90157e-06
2.72579e-06
4.0904e-06
6.12071e-06
8.81968e-06
1.20731e-05
1.58041e-05
1.98016e-05
2.39546e-05
2.82549e-05
3.26869e-05
3.70895e-05
4.13346e-05
4.53304e-05
4.90173e-05
5.23907e-05
5.55023e-05
5.84764e-05
6.15376e-05
6.50606e-05
6.96438e-05
7.62119e-05
8.61722e-05
0.000101537
0.000124849
0.000158668
0.000204726
0.000263322
0.000333371
2.84822e-10
2.88546e-10
2.97053e-10
3.10371e-10
3.28679e-10
3.52298e-10
3.81695e-10
4.17483e-10
4.60444e-10
5.11547e-10
5.71985e-10
6.43214e-10
7.27019e-10
8.2559e-10
9.41633e-10
1.07851e-09
1.24044e-09
1.43275e-09
1.66224e-09
1.93769e-09
2.27049e-09
2.67556e-09
3.17264e-09
3.78795e-09
4.55657e-09
5.52568e-09
6.75906e-09
8.34309e-09
1.03951e-08
1.30745e-08
1.65975e-08
2.12556e-08
2.74387e-08
3.56598e-08
4.65788e-08
6.10153e-08
7.99395e-08
1.04428e-07
1.35579e-07
1.7432e-07
2.21224e-07
2.76318e-07
3.38961e-07
4.07768e-07
4.80866e-07
5.56436e-07
6.3323e-07
7.13321e-07
8.05104e-07
9.30848e-07
1.14197e-06
1.54406e-06
2.31559e-06
3.67357e-06
5.77294e-06
8.62279e-06
1.20942e-05
1.60129e-05
2.03384e-05
2.49667e-05
2.98334e-05
3.4977e-05
4.01719e-05
4.52741e-05
5.01745e-05
5.47936e-05
5.91341e-05
6.32683e-05
6.73594e-05
7.16925e-05
7.67342e-05
8.32189e-05
9.22346e-05
0.000105371
0.000124721
0.000152679
0.000191344
0.000241819
0.000303824
0.000375862
2.84742e-10
2.88533e-10
2.97099e-10
3.10478e-10
3.28858e-10
3.52568e-10
3.82076e-10
4.18004e-10
4.61135e-10
5.12442e-10
5.73115e-10
6.44609e-10
7.28698e-10
8.27555e-10
9.43852e-10
1.0809e-09
1.24282e-09
1.43482e-09
1.66352e-09
1.93738e-09
2.26741e-09
2.66792e-09
3.15779e-09
3.76201e-09
4.51386e-09
5.45787e-09
6.65381e-09
8.1821e-09
1.01509e-08
1.27057e-08
1.60412e-08
2.04167e-08
2.61742e-08
3.37571e-08
4.37267e-08
5.67693e-08
7.36815e-08
9.53242e-08
1.22531e-07
1.55957e-07
1.9591e-07
2.42178e-07
2.93922e-07
3.49662e-07
4.07461e-07
4.65346e-07
5.21998e-07
5.78496e-07
6.41064e-07
7.27723e-07
8.83634e-07
1.20711e-06
1.88292e-06
3.1631e-06
5.23993e-06
8.15676e-06
1.18055e-05
1.59859e-05
2.05144e-05
2.54392e-05
3.08574e-05
3.67889e-05
4.28703e-05
4.89212e-05
5.48637e-05
6.05778e-05
6.60811e-05
7.14639e-05
7.69293e-05
8.28163e-05
8.96685e-05
9.83277e-05
0.000109989
0.000126304
0.000149322
0.000181183
0.000223557
0.000277039
0.000340877
0.000413206
2.84571e-10
2.88508e-10
2.97197e-10
3.10701e-10
3.29229e-10
3.53125e-10
3.82874e-10
4.19108e-10
4.62626e-10
5.14411e-10
5.75663e-10
6.47842e-10
7.32719e-10
8.32449e-10
9.49662e-10
1.08759e-09
1.25025e-09
1.44263e-09
1.67105e-09
1.94355e-09
2.27047e-09
2.66521e-09
3.14535e-09
3.73405e-09
4.46203e-09
5.37018e-09
6.51307e-09
7.96356e-09
9.81874e-09
1.22076e-08
1.53004e-08
1.93203e-08
2.45564e-08
3.13773e-08
4.02423e-08
5.17039e-08
6.6393e-08
8.49757e-08
1.08072e-07
1.36135e-07
1.69301e-07
2.07253e-07
2.49129e-07
2.93521e-07
3.38623e-07
3.82566e-07
4.24005e-07
4.63282e-07
5.0453e-07
5.60944e-07
6.68656e-07
9.07782e-07
1.45072e-06
2.57275e-06
4.51329e-06
7.36496e-06
1.1065e-05
1.54339e-05
2.02755e-05
2.55125e-05
3.12438e-05
3.76479e-05
4.46624e-05
5.19145e-05
5.9037e-05
6.6002e-05
7.28659e-05
7.97181e-05
8.68041e-05
9.44995e-05
0.000103405
0.000114408
0.000128758
0.000148077
0.000174285
0.000209258
0.0002543
0.000309594
0.000373953
0.000445118
2.8436e-10
2.88495e-10
2.97353e-10
3.11035e-10
3.29779e-10
3.53955e-10
3.8407e-10
4.20783e-10
4.64914e-10
5.17472e-10
5.79679e-10
6.53014e-10
7.39259e-10
8.40561e-10
9.59518e-10
1.09928e-09
1.26372e-09
1.45759e-09
1.68683e-09
1.95891e-09
2.28332e-09
2.67232e-09
3.1418e-09
3.71263e-09
4.41235e-09
5.27761e-09
6.35705e-09
7.7153e-09
9.43789e-09
1.16371e-08
1.44589e-08
1.80906e-08
2.27691e-08
2.87894e-08
3.65109e-08
4.63584e-08
5.88095e-08
7.43593e-08
9.34564e-08
1.16406e-07
1.43254e-07
1.73674e-07
2.06892e-07
2.41692e-07
2.76526e-07
3.09772e-07
3.4017e-07
3.67593e-07
3.94487e-07
4.29614e-07
4.99149e-07
6.61234e-07
1.05691e-06
1.9495e-06
3.63385e-06
6.25856e-06
9.83437e-06
1.42288e-05
1.92621e-05
2.48256e-05
3.09649e-05
3.78028e-05
4.53169e-05
5.34293e-05
6.19632e-05
7.05315e-05
7.89399e-05
8.74476e-05
9.63662e-05
0.000106066
0.000117185
0.000130623
0.000147606
0.000169684
0.000198618
0.000236047
0.000282971
0.0003392
0.000403068
0.000471767
2.84181e-10
2.88529e-10
2.97576e-10
3.11471e-10
3.30486e-10
3.55027e-10
3.85634e-10
4.23e-10
4.67984e-10
5.21634e-10
5.85218e-10
6.60255e-10
7.48564e-10
8.52313e-10
9.74093e-10
1.117e-09
1.28477e-09
1.48192e-09
1.71398e-09
1.98778e-09
2.31187e-09
2.69711e-09
3.1575e-09
3.71125e-09
4.38241e-09
5.20286e-09
6.21519e-09
7.47606e-09
9.06048e-09
1.10665e-08
1.36199e-08
1.68784e-08
2.10347e-08
2.6318e-08
3.29971e-08
4.13797e-08
5.18037e-08
6.46131e-08
8.01116e-08
9.84938e-08
1.1976e-07
1.43631e-07
1.69489e-07
1.96375e-07
2.23066e-07
2.48265e-07
2.70904e-07
2.90632e-07
3.08736e-07
3.30535e-07
3.73244e-07
4.75008e-07
7.35616e-07
1.36938e-06
2.69169e-06
4.92058e-06
8.14901e-06
1.23364e-05
1.73504e-05
2.30656e-05
2.94723e-05
3.66863e-05
4.4812e-05
5.3663e-05
6.30576e-05
7.29367e-05
8.32327e-05
9.37845e-05
0.000104703
0.000116526
0.000129933
0.000145816
0.000165344
0.000189972
0.000221323
0.00026085
0.000309302
0.000366102
0.000428908
0.000493868
2.84121e-10
2.88642e-10
2.97865e-10
3.11985e-10
3.31313e-10
3.56292e-10
3.87509e-10
4.25703e-10
4.7179e-10
5.2688e-10
5.92313e-10
6.69686e-10
7.60898e-10
8.68191e-10
9.94206e-10
1.14205e-09
1.31539e-09
1.51855e-09
1.75669e-09
2.03605e-09
2.36418e-09
2.7505e-09
3.2069e-09
3.74873e-09
4.39622e-09
5.17641e-09
6.12586e-09
7.2942e-09
8.74842e-09
1.05776e-08
1.2897e-08
1.58495e-08
1.96023e-08
2.43395e-08
3.0259e-08
3.75719e-08
4.64973e-08
5.72472e-08
6.99959e-08
8.48389e-08
1.0174e-07
1.20479e-07
1.40616e-07
1.61461e-07
1.82129e-07
2.0168e-07
2.19314e-07
2.34653e-07
2.48281e-07
2.63187e-07
2.89604e-07
3.50827e-07
5.08404e-07
9.08839e-07
1.81865e-06
3.51345e-06
6.15729e-06
9.83462e-06
1.45202e-05
2.01173e-05
2.65624e-05
3.391e-05
4.22782e-05
5.17509e-05
6.21216e-05
7.31766e-05
8.47403e-05
9.69584e-05
0.000110074
0.000124308
0.000140119
0.000158377
0.000180336
0.00020737
0.00024104
0.000282732
0.000333066
0.000391053
0.000453194
0.000513131
2.84266e-10
2.8884e-10
2.982e-10
3.12539e-10
3.32201e-10
3.57675e-10
3.89605e-10
4.28794e-10
4.76235e-10
5.33131e-10
6.0093e-10
6.81359e-10
7.76465e-10
8.88646e-10
1.0207e-09
1.17585e-09
1.35782e-09
1.57091e-09
1.82007e-09
2.11104e-09
2.45053e-09
2.84652e-09
3.30879e-09
3.84968e-09
4.48535e-09
5.23771e-09
6.13738e-09
7.22787e-09
8.57129e-09
1.02554e-08
1.24007e-08
1.51628e-08
1.87224e-08
2.32598e-08
2.89439e-08
3.59338e-08
4.43779e-08
5.44042e-08
6.60917e-08
7.94528e-08
9.44082e-08
1.10769e-07
1.28234e-07
1.46312e-07
1.64332e-07
1.8165e-07
1.97717e-07
2.12199e-07
2.25301e-07
2.38539e-07
2.57188e-07
2.95646e-07
3.86549e-07
6.16376e-07
1.15848e-06
2.26964e-06
4.15589e-06
6.9942e-06
1.09269e-05
1.59929e-05
2.21315e-05
2.9303e-05
3.75125e-05
4.69458e-05
5.76924e-05
6.96762e-05
8.25387e-05
9.62981e-05
0.000111099
0.000127281
0.000145298
0.000165848
0.00018999
0.000219195
0.000255124
0.000299382
0.000352936
0.000414894
0.000479987
0.000534207
2.84451e-10
2.89061e-10
2.98535e-10
3.13078e-10
3.33069e-10
3.59066e-10
3.91785e-10
4.32114e-10
4.81144e-10
5.40207e-10
6.10909e-10
6.95178e-10
7.95299e-10
9.13951e-10
1.05424e-09
1.21971e-09
1.41436e-09
1.64273e-09
1.90985e-09
2.2213e-09
2.58323e-09
3.00248e-09
3.48683e-09
4.04558e-09
4.69053e-09
5.43789e-09
6.31153e-09
7.3486e-09
8.60812e-09
1.01838e-08
1.22218e-08
1.49364e-08
1.85998e-08
2.3461e-08
2.97291e-08
3.75959e-08
4.72359e-08
5.88069e-08
7.23742e-08
8.79305e-08
1.05379e-07
1.2453e-07
1.45194e-07
1.66898e-07
1.88794e-07
2.10351e-07
2.31102e-07
2.50626e-07
2.68896e-07
2.86765e-07
3.07853e-07
3.3928e-07
3.90963e-07
5.19458e-07
8.1763e-07
1.44378e-06
2.55761e-06
4.33849e-06
7.07994e-06
1.10343e-05
1.6334e-05
2.30273e-05
3.07935e-05
3.95341e-05
4.94401e-05
6.12591e-05
7.43895e-05
8.88216e-05
0.000104726
0.000122413
0.000142099
0.000164174
0.000189735
0.000220185
0.000257511
0.000303992
0.000362265
0.000433965
0.000513942
0.000566728
2.84576e-10
2.89253e-10
2.98832e-10
3.13542e-10
3.33817e-10
3.60313e-10
3.93855e-10
4.35422e-10
4.86231e-10
5.4778e-10
6.21899e-10
7.10798e-10
8.1713e-10
9.44007e-10
1.09511e-09
1.27458e-09
1.48698e-09
1.73754e-09
2.03194e-09
2.37617e-09
2.77644e-09
3.23904e-09
3.77026e-09
4.37651e-09
5.06496e-09
5.845e-09
6.73148e-09
7.75199e-09
8.95885e-09
1.04512e-08
1.24167e-08
1.51929e-08
1.93117e-08
2.52254e-08
3.33157e-08
4.39894e-08
5.76701e-08
7.48779e-08
9.58787e-08
1.20858e-07
1.49817e-07
1.82492e-07
2.18245e-07
2.56346e-07
2.96093e-07
3.36189e-07
3.75428e-07
4.12799e-07
4.47802e-07
4.80183e-07
5.12273e-07
5.49102e-07
6.01512e-07
7.02995e-07
8.79941e-07
1.20623e-06
1.81554e-06
2.76601e-06
4.1487e-06
6.25077e-06
9.87601e-06
1.56725e-05
2.34374e-05
3.2832e-05
4.34043e-05
5.38263e-05
6.52417e-05
7.76417e-05
9.14149e-05
0.000106949
0.000124983
0.000146515
0.000171391
0.000200674
0.000236312
0.000281077
0.000339003
0.000413322
0.000501405
0.000575984
2.84633e-10
2.89417e-10
2.99096e-10
3.13908e-10
3.34336e-10
3.61203e-10
3.95533e-10
4.3836e-10
4.91045e-10
5.55297e-10
6.33243e-10
7.27481e-10
8.41226e-10
9.78058e-10
1.14273e-09
1.34052e-09
1.57666e-09
1.85802e-09
2.19166e-09
2.58501e-09
3.04549e-09
3.58001e-09
4.19445e-09
4.89316e-09
5.67877e-09
6.55256e-09
7.51582e-09
8.57958e-09
9.77635e-09
1.11876e-08
1.30199e-08
1.57736e-08
2.06733e-08
2.85764e-08
4.02131e-08
5.65986e-08
7.88203e-08
1.08766e-07
1.47388e-07
1.95841e-07
2.54833e-07
3.24364e-07
4.03552e-07
4.90606e-07
5.82854e-07
6.7679e-07
7.68671e-07
8.55383e-07
9.35948e-07
1.00778e-06
1.07641e-06
1.1515e-06
1.24848e-06
1.40021e-06
1.62485e-06
1.94146e-06
2.36301e-06
2.82562e-06
3.30521e-06
3.97048e-06
5.75723e-06
1.06867e-05
1.8711e-05
2.98353e-05
4.33414e-05
5.74895e-05
7.07923e-05
8.28601e-05
9.39938e-05
0.000104755
0.000115282
0.000125954
0.000137108
0.000149946
0.000165793
0.000186164
0.000213127
0.000254935
0.000319278
0.000529319
3.5355e-05
4.13685e-05
5.2593e-05
6.64344e-05
8.17264e-05
9.79362e-05
0.000115063
0.000130357
0.000142307
0.000153638
0.000163679
0.00017278
0.000188596
0.0002264
0.000283295
0.000365364
0.00046813
0.000590963
0.000735783
0.000904218
0.00107247
0.00124344
0.001414
0.00158649
0.00175984
0.0019349
0.00211137
0.00228936
0.00246858
0.00264895
0.00282991
0.00301034
0.00319011
0.00337322
0.00355543
0.00371467
0.00386395
0.0040125
0.00415559
0.00430064
0.00444231
0.00457791
0.00470709
0.00482949
0.00494474
0.0050526
0.00515325
0.00524742
0.00533453
0.00541434
0.00548602
0.0055482
0.00560006
0.00564135
0.00567337
0.005697
0.00571238
0.00571952
0.00571852
0.0057095
0.00569265
0.00566819
0.0056364
0.00559762
0.00555224
0.00550068
0.00544334
0.00538058
0.00531267
0.00523985
0.00516228
0.0050804
0.00499266
0.00490102
0.00481256
0.00473025
0.00468285
0.00470281
0.00474808
0.00480078
0.00485205
0.00490293
0.00495382
0.00500197
0.00504604
0.00508972
0.00513126
0.00517026
0.00520698
0.0052488
0.00529849
0.00534184
0.00538031
0.00541586
0.00544991
0.00548308
0.00551567
0.00554784
0.00557969
0.00561121
0.00564239
0.00567315
0.00570345
0.00573322
0.00576238
0.00579085
0.00581858
0.0058455
0.00587156
0.00589671
0.0059209
0.00594408
0.00596618
0.00598715
0.00600696
0.00602558
0.00604295
0.00605903
0.0060738
0.00608724
0.00609934
0.00611007
0.00611943
0.00612737
0.00613392
0.006139
0.00614268
0.00614479
0.00614554
0.00614384
0.00614029
0.00613773
0.00613371
0.00612374
0.00611637
0.00610356
0.00609343
0.00608225
0.00607024
0.00605733
0.0060441
0.00602992
0.00601485
0.00599897
0.00598232
0.00596493
0.00594679
0.00592799
0.00590857
0.00588867
0.00586809
0.0058477
0.00582647
0.00580456
0.00578291
0.00576154
0.0057404
0.00571956
0.00569909
0.00567902
0.00565941
0.00564026
0.00562161
0.00560345
0.00558575
0.00556848
0.0055516
0.0055351
0.005519
0.00550327
0.00548783
0.00547263
0.00545768
0.00544306
0.00542876
0.00541483
0.00540125
0.00538799
0.00537506
0.00536248
0.00535027
0.0053385
0.00532721
0.00531645
0.00530617
0.0052963
0.00528679
0.00527758
0.0052686
0.00525975
0.00525099
0.00524229
0.00523365
0.00522513
0.00521678
0.00520871
0.00520098
0.0051936
0.00518657
0.00517983
0.00517335
0.00516713
0.00516121
0.00515565
0.00515046
0.00514565
0.00514114
0.00513687
0.00513271
0.00512853
0.00512426
0.00511988
0.00511542
0.00511092
0.00510645
0.0051021
0.00509796
0.00509409
0.00509052
0.0050872
0.00508409
0.00508115
0.00507836
0.00507573
0.0050733
0.00507109
0.0050691
0.0050673
0.00506563
0.00506402
0.00506239
0.00506063
0.00505872
0.0050567
0.0050546
0.00505252
0.00505055
0.0050488
0.00504733
0.00504614
0.0050452
0.00504443
0.00504373
0.00504305
0.00504238
0.00504176
0.00504123
0.00504083
0.00504055
0.00504035
0.00504017
0.00503997
0.00503967
0.00503925
0.00503871
0.0050381
0.00503748
0.00503688
0.00503638
0.005036
0.00503579
0.00503576
0.0050359
0.00503616
0.00503648
0.00503675
0.00503695
0.00503709
0.00503725
0.0050375
0.00503787
0.00503835
0.00503885
0.0050393
0.00503965
0.00503988
0.00504001
0.00504012
0.00504025
0.00504046
0.00504078
0.00504121
0.00504176
0.0050424
0.00504309
0.00504381
0.0050445
0.00504514
0.00504568
0.00504611
0.00504646
0.00504676
0.00504711
0.00504753
0.00504805
0.00504861
0.00504913
0.00504955
0.00504983
0.00505003
0.00505021
0.00505045
0.00505079
0.00505121
0.0050517
0.00505219
0.00505266
0.00505308
0.00505344
0.00505372
0.00505394
0.00505407
0.00505414
0.00505417
0.00505417
0.0050542
0.00505427
0.00505441
0.00505459
0.00505474
0.00505475
0.00505463
0.00505441
0.00505416
0.00505395
0.00505382
0.00505378
0.00505379
0.00505373
0.00505351
0.00505312
0.00505263
0.00505206
0.00505144
0.0050508
0.00505015
0.00504949
0.00504882
0.00504816
0.00504749
0.00504682
0.0050461
0.00504528
0.00504432
0.00504321
0.00504199
0.00504073
0.00503947
0.00503825
0.00503705
0.00503582
0.00503446
0.00503291
0.00503119
0.00502936
0.00502751
0.00502567
0.00502384
0.00502201
0.00502012
0.00501816
0.00501613
0.00501402
0.00501185
0.0050096
0.00500726
0.00500481
0.00500225
0.0049996
0.00499691
0.00499419
0.00499146
0.0049887
0.00498588
0.00498294
0.00497987
0.00497665
0.00497334
0.00496998
0.00496662
0.00496328
0.00495991
0.00495646
0.00495288
0.00494917
0.00494535
0.00494144
0.00493746
0.00493342
0.0049293
0.00492509
0.00492081
0.00491645
0.00491203
0.00490755
0.00490302
0.0048984
0.00489369
0.00488885
0.0048839
0.00487886
0.00487375
0.00486859
0.0048634
0.00485815
0.00485281
0.00484735
0.00484175
0.00483603
0.00483022
0.00482435
0.00481842
0.00481244
0.00480637
0.00480022
0.00479396
0.00478762
0.0047812
0.0047747
0.00476812
0.00476145
0.00475468
0.00474781
0.00474084
0.00473379
0.00472667
0.00471948
0.00471222
0.00470487
0.00469741
0.00468984
0.00468216
0.00467439
0.00466655
0.00465864
0.00465068
0.00464263
0.00463449
0.00462624
0.00461789
0.00460945
0.00460093
0.00459233
0.00458365
0.00457488
0.00456602
0.00455701
0.004548
0.00453896
0.0045297
0.00452041
0.00451102
0.00450152
0.00449193
0.00448219
0.00447246
0.00446377
0.00445245
0.00444657
0.00442972
0.00442293
0.0044092
0.00440072
0.00439018
0.00437945
0.00436866
0.00435786
0.00434708
0.0043363
0.00432549
0.00431464
0.00430375
0.00429281
0.00428183
0.00427076
0.00425962
0.00424836
0.00423704
0.00422563
0.00421418
0.00420264
0.004191
0.00417943
0.00416758
0.00415514
0.00414465
0.00413127
0.00411278
0.00410534
0.00409481
0.00407615
0.0040649
0.00405335
0.00404155
0.00402953
0.0040173
0.0040049
0.00399236
0.00397969
0.00396689
0.00395397
0.00394095
0.00392788
0.00391471
0.00390159
0.00388832
0.00387503
0.00386162
0.0038481
0.00383449
0.00382078
0.00380697
0.0037931
0.00377911
0.00376508
0.00375087
0.00373663
0.00372196
0.0037074
0.00369247
0.00367761
0.0036626
0.00364763
0.00363273
0.00361787
0.00360306
0.00358829
0.00357354
0.00355881
0.00354409
0.00352937
0.00351463
0.00349989
0.00348512
0.00347033
0.00345551
0.00344065
0.00342575
0.00341082
0.00339584
0.00338083
0.00336577
0.00335068
0.00333555
0.00332037
0.00330517
0.00328992
0.00327465
0.00325934
0.003244
0.00322863
0.00321324
0.00319783
0.00318239
0.00316693
0.00315145
0.00313596
0.00312045
0.00310493
0.00308939
0.00307383
0.00305824
0.00304262
0.00302699
0.00301134
0.0029957
0.00298007
0.00296444
0.00294884
0.00293325
0.0029177
0.00290216
0.00288666
0.0028712
0.00285577
0.00284037
0.00282501
0.00280969
0.0027944
0.00277914
0.00276389
0.00274866
0.00273345
0.00271826
0.00270308
0.00268796
0.00267292
0.00265794
0.00264307
0.00262825
0.00261356
0.00259886
0.00258434
0.00256968
0.00255527
0.00254061
0.00252621
0.00251171
0.00249746
0.00248322
0.00246918
0.00245522
0.00244139
0.00242768
0.00241406
0.00240051
0.00238702
0.00237359
0.00236023
0.00234694
0.00233374
0.00232064
0.00230763
0.00229473
0.00228194
0.00226926
0.0022567
0.00224426
0.00223193
0.00221973
0.00220765
0.00219569
0.00218386
0.00217216
0.0021606
0.00214916
0.00213786
0.0021267
0.00211569
0.00210481
0.00209408
0.0020835
0.00207308
0.00206281
0.00205269
0.00204273
0.00203293
0.0020233
0.00201382
0.00200451
0.00199537
0.0019864
0.0019776
0.00196897
0.00196051
0.00195224
0.00194414
0.00193622
0.00192848
0.00192093
0.00191356
0.00190638
0.00189939
0.0018926
0.001886
0.00187959
0.00187338
0.00186737
0.00186155
0.00185594
0.00185053
0.00184533
0.00184032
0.00183553
0.00183094
0.00182656
0.00182237
0.00181838
0.00181458
0.00181096
0.00180754
0.00180431
0.00180127
0.00179843
0.00179577
0.0017933
0.00179103
0.00178895
0.00178707
0.0017854
0.00178393
0.00178265
0.00178158
0.00178071
0.00178003
0.00177956
0.00177929
0.00177923
0.00177936
0.00177969
0.00178022
0.00178093
0.00178184
0.00178293
0.00178421
0.00178565
0.00178721
0.00178905
0.00179093
0.00179303
0.00179529
0.00179769
0.00180021
0.00180284
0.00180556
0.00180837
0.00181125
0.00181419
0.00181716
0.00182014
0.0018231
0.00182602
0.00182888
0.00183165
0.00183429
0.00183676
0.00183902
0.001841
0.00184272
0.00184398
2.67703e-05
4.47294e-05
7.20402e-05
0.000104212
0.00014099
0.000182407
0.000226289
0.000271251
0.000317429
0.00036623
0.000417552
0.000472013
0.000534411
0.000609865
0.000695337
0.000792604
0.000906008
0.00103313
0.00117939
0.00135438
0.00153861
0.00172563
0.00191033
0.00209764
0.0022859
0.00247644
0.00267002
0.00286781
0.00306959
0.00327575
0.00348632
0.00370172
0.00392032
0.00414149
0.00436564
0.00459054
0.00481862
0.00504927
0.00528174
0.00551574
0.00574962
0.00598352
0.00621738
0.00645069
0.00668303
0.00691389
0.00714244
0.00736812
0.00759328
0.00781916
0.00804544
0.0082684
0.00848456
0.00868799
0.00888259
0.00906992
0.00924945
0.00942054
0.00958251
0.00973468
0.00987645
0.0100073
0.0101267
0.0102343
0.01033
0.0104137
0.0104854
0.0105449
0.0105919
0.0106263
0.0106472
0.0106555
0.0106516
0.0106347
0.0106078
0.0105718
0.0105337
0.0104967
0.0104576
0.0104112
0.0103568
0.0102957
0.0102272
0.0101522
0.0100724
0.00998296
0.00988782
0.0097876
0.00967813
0.00958085
0.00948767
0.00938669
0.00928356
0.00917823
0.00907143
0.00896418
0.00885713
0.00875071
0.00864522
0.00854087
0.0084378
0.0083361
0.00823591
0.0081372
0.00804003
0.00794454
0.00785084
0.00775902
0.00766917
0.00758144
0.00749584
0.00741251
0.00733125
0.00725234
0.00717582
0.00710145
0.00702916
0.00695896
0.00689087
0.00682481
0.0067609
0.00669882
0.00663891
0.00658047
0.00652442
0.0064692
0.00641713
0.0063644
0.00631699
0.0062562
0.00620161
0.00615904
0.00611794
0.00607765
0.00603879
0.0060007
0.00596386
0.00592808
0.00589613
0.00586324
0.00583966
0.00580673
0.0057746
0.00574345
0.00571332
0.00568396
0.00565513
0.00562736
0.00559998
0.00557471
0.00554445
0.00552769
0.00549664
0.00546426
0.00544434
0.00542509
0.00540656
0.0053886
0.0053713
0.00535452
0.00533847
0.00532274
0.00530768
0.00529321
0.00527918
0.00526556
0.00525229
0.00523982
0.00522896
0.00521823
0.00520687
0.00519428
0.00518198
0.00517034
0.00515885
0.00514803
0.00513734
0.0051264
0.00511588
0.00510534
0.00509516
0.00508558
0.00507677
0.00506869
0.00506122
0.005054
0.00504681
0.00503959
0.00503221
0.00502453
0.0050166
0.00500853
0.00500048
0.00499267
0.00498528
0.00497837
0.00497188
0.00496566
0.00495954
0.00495344
0.0049474
0.00494154
0.00493605