/*--------------------------------*- C++ -*----------------------------------*\
| =========                 |                                                 |
| \\      /  F ield         | OpenFOAM: The Open Source CFD Toolbox           |
|  \\    /   O peration     | Version:  2412                                  |
|   \\  /    A nd           | Website:  www.openfoam.com                      |
|    \\/     M anipulation  |                                                 |
\*---------------------------------------------------------------------------*/
FoamFile
{
    version     2.0;
    format      ascii;
    arch        "LSB;label=32;scalar=64";
    class       volScalarField;
    location    "2000";
    object      nut;
}
// * * * * * * * * * * * * * * * * * * * * * * * * * * * * * * * * * * * * * //

dimensions      [0 2 -1 0 0 0 0];

internalField   nonuniform List<scalar> 
150400
(
2.3707e-09
2.39102e-09
2.43094e-09
2.49031e-09
2.56917e-09
2.66839e-09
2.78992e-09
2.93544e-09
3.10667e-09
3.3055e-09
3.53437e-09
3.79617e-09
4.09295e-09
4.42643e-09
4.79949e-09
5.21483e-09
5.68004e-09
6.20012e-09
6.78076e-09
7.42647e-09
8.13355e-09
8.90529e-09
9.74435e-09
1.0653e-08
1.16334e-08
1.26891e-08
1.38238e-08
1.50434e-08
1.6336e-08
1.77458e-08
1.92581e-08
2.07707e-08
2.25093e-08
2.46279e-08
2.72571e-08
3.05241e-08
3.53386e-08
4.0757e-08
4.7949e-08
5.70964e-08
6.82858e-08
8.15406e-08
9.70344e-08
1.14609e-07
1.34318e-07
1.56882e-07
1.81219e-07
2.07024e-07
2.33685e-07
2.60157e-07
2.8453e-07
3.02518e-07
3.12829e-07
3.16251e-07
3.12244e-07
3.02431e-07
2.94466e-07
3.28469e-07
3.77028e-07
4.43689e-07
5.12299e-07
5.76184e-07
6.36814e-07
6.92891e-07
7.43962e-07
7.89292e-07
8.26801e-07
8.65397e-07
8.85381e-07
8.9806e-07
9.01679e-07
8.97309e-07
8.86458e-07
8.70476e-07
8.51175e-07
8.30883e-07
8.13125e-07
8.01748e-07
7.99357e-07
8.1371e-07
2.37007e-09
2.41027e-09
2.46111e-09
2.52568e-09
2.60594e-09
2.70376e-09
2.82126e-09
2.96067e-09
3.12426e-09
3.3142e-09
3.53276e-09
3.78233e-09
4.06529e-09
4.3841e-09
4.74116e-09
5.13919e-09
5.5828e-09
6.07657e-09
6.62546e-09
7.23398e-09
7.90478e-09
8.64183e-09
9.45024e-09
1.03365e-08
1.13088e-08
1.23779e-08
1.35577e-08
1.48656e-08
1.63226e-08
1.79634e-08
1.98221e-08
2.19369e-08
2.44086e-08
2.73557e-08
3.09084e-08
3.52271e-08
4.0592e-08
4.71271e-08
5.53798e-08
6.50266e-08
7.63727e-08
8.95606e-08
1.04656e-07
1.21664e-07
1.40705e-07
1.61922e-07
1.85233e-07
2.10832e-07
2.39335e-07
2.72126e-07
3.13772e-07
3.75203e-07
4.62056e-07
5.83173e-07
7.4471e-07
9.51651e-07
1.16561e-06
1.31941e-06
1.38203e-06
1.37476e-06
1.3757e-06
1.36858e-06
1.34723e-06
1.30296e-06
1.27494e-06
1.22377e-06
1.15136e-06
1.08192e-06
1.02295e-06
9.6953e-07
9.20986e-07
8.76001e-07
8.37874e-07
8.1407e-07
7.98325e-07
7.91002e-07
7.99568e-07
8.36747e-07
9.50867e-07
1.19727e-06
2.36919e-09
2.42231e-09
2.4826e-09
2.55286e-09
2.63576e-09
2.73392e-09
2.85e-09
2.98663e-09
3.14636e-09
3.33161e-09
3.54473e-09
3.78807e-09
4.06408e-09
4.37532e-09
4.72445e-09
5.11455e-09
5.5497e-09
6.03461e-09
6.57463e-09
7.17554e-09
7.84343e-09
8.58567e-09
9.41169e-09
1.03337e-08
1.13674e-08
1.25333e-08
1.38578e-08
1.53747e-08
1.7127e-08
1.91699e-08
2.1571e-08
2.44111e-08
2.77917e-08
3.1842e-08
3.67176e-08
4.26239e-08
4.98354e-08
5.86633e-08
6.9436e-08
8.22051e-08
9.7309e-08
1.14963e-07
1.35416e-07
1.59023e-07
1.86339e-07
2.18282e-07
2.56462e-07
3.03693e-07
3.64747e-07
4.47391e-07
5.6385e-07
7.28482e-07
9.44965e-07
1.20997e-06
1.51514e-06
1.83168e-06
2.14735e-06
2.42988e-06
2.65947e-06
2.83324e-06
2.97335e-06
3.08604e-06
3.14045e-06
3.12511e-06
3.11512e-06
3.08362e-06
3.0131e-06
2.90062e-06
2.78497e-06
2.65243e-06
2.51184e-06
2.33272e-06
2.17358e-06
2.05545e-06
1.9857e-06
1.96567e-06
2.05378e-06
2.26609e-06
2.81583e-06
4.36071e-06
2.36804e-09
2.43058e-09
2.49875e-09
2.57462e-09
2.66094e-09
2.7608e-09
2.8773e-09
3.01346e-09
3.17213e-09
3.35595e-09
3.56744e-09
3.80912e-09
4.08361e-09
4.39371e-09
4.74254e-09
5.13376e-09
5.57191e-09
6.06246e-09
6.61194e-09
7.22811e-09
7.92025e-09
8.69983e-09
9.58147e-09
1.0584e-08
1.17315e-08
1.3055e-08
1.45943e-08
1.63997e-08
1.8534e-08
2.10752e-08
2.41187e-08
2.7777e-08
3.21838e-08
3.75189e-08
4.4009e-08
5.19286e-08
6.16073e-08
7.34308e-08
8.77775e-08
1.049e-07
1.25256e-07
1.49454e-07
1.78151e-07
2.12257e-07
2.53238e-07
3.03433e-07
3.66491e-07
4.47849e-07
5.55116e-07
6.97595e-07
8.83335e-07
1.11312e-06
1.37601e-06
1.66699e-06
1.9802e-06
2.30688e-06
2.63831e-06
2.96331e-06
3.27836e-06
3.57934e-06
3.86306e-06
4.1181e-06
4.33301e-06
4.50125e-06
4.63608e-06
4.73691e-06
4.79919e-06
4.81619e-06
4.79737e-06
4.7573e-06
4.67376e-06
4.55635e-06
4.40195e-06
4.25601e-06
4.19149e-06
4.25728e-06
4.53329e-06
5.17847e-06
6.38014e-06
8.1716e-06
2.36681e-09
2.43673e-09
2.51147e-09
2.59256e-09
2.6827e-09
2.78516e-09
2.90342e-09
3.04082e-09
3.20049e-09
3.38535e-09
3.59818e-09
3.84174e-09
4.11897e-09
4.4331e-09
4.78784e-09
5.18759e-09
5.63779e-09
6.14509e-09
6.71768e-09
7.36563e-09
8.10145e-09
8.94083e-09
9.90372e-09
1.10155e-08
1.23086e-08
1.38241e-08
1.5614e-08
1.77434e-08
2.02933e-08
2.33635e-08
2.70749e-08
3.15806e-08
3.70712e-08
4.37827e-08
5.20174e-08
6.21399e-08
7.45786e-08
8.98097e-08
1.08328e-07
1.30654e-07
1.57435e-07
1.89463e-07
2.27746e-07
2.73708e-07
3.29482e-07
3.98281e-07
4.84426e-07
5.9308e-07
7.30231e-07
8.9991e-07
1.10147e-06
1.32755e-06
1.5722e-06
1.83446e-06
2.11767e-06
2.43138e-06
2.7587e-06
3.09627e-06
3.44164e-06
3.79094e-06
4.13999e-06
4.4831e-06
4.81336e-06
5.12349e-06
5.40843e-06
5.66348e-06
5.886e-06
6.07597e-06
6.21365e-06
6.31751e-06
6.38326e-06
6.42246e-06
6.43027e-06
6.44793e-06
6.5689e-06
6.93268e-06
7.49603e-06
8.32666e-06
9.46874e-06
1.09512e-05
2.36613e-09
2.44169e-09
2.52179e-09
2.60756e-09
2.70153e-09
2.80709e-09
2.92793e-09
3.0677e-09
3.22981e-09
3.41744e-09
3.63368e-09
3.88163e-09
4.16462e-09
4.4864e-09
4.85135e-09
5.26474e-09
5.73305e-09
6.2643e-09
6.86847e-09
7.55799e-09
8.34844e-09
9.25943e-09
1.03157e-08
1.15487e-08
1.29979e-08
1.47132e-08
1.67573e-08
1.9208e-08
2.21627e-08
2.57427e-08
3.01011e-08
3.54269e-08
4.19621e-08
5.00098e-08
5.99457e-08
7.22162e-08
8.73316e-08
1.05851e-07
1.28369e-07
1.55551e-07
1.88178e-07
2.27105e-07
2.73491e-07
3.28878e-07
3.95167e-07
4.75721e-07
5.74502e-07
6.95674e-07
8.38629e-07
1.00108e-06
1.17911e-06
1.37248e-06
1.58292e-06
1.81759e-06
2.08411e-06
2.38687e-06
2.7185e-06
3.07348e-06
3.44686e-06
3.8358e-06
4.23783e-06
4.64897e-06
5.06323e-06
5.47297e-06
5.8701e-06
6.24717e-06
6.59907e-06
6.92649e-06
7.20381e-06
7.46062e-06
7.68809e-06
7.89015e-06
8.12975e-06
8.42825e-06
8.80004e-06
9.24304e-06
9.79261e-06
1.05898e-05
1.17852e-05
1.34925e-05
2.36634e-09
2.44589e-09
2.53019e-09
2.61993e-09
2.71746e-09
2.82619e-09
2.94997e-09
3.09268e-09
3.25799e-09
3.44935e-09
3.67016e-09
3.92387e-09
4.21426e-09
4.54559e-09
4.92294e-09
5.35242e-09
5.84159e-09
6.39979e-09
7.03866e-09
7.77278e-09
8.62038e-09
9.60437e-09
1.07535e-08
1.21041e-08
1.37016e-08
1.56031e-08
1.788e-08
2.0622e-08
2.39418e-08
2.79809e-08
3.29185e-08
3.89807e-08
4.64534e-08
5.56942e-08
6.7133e-08
8.1271e-08
9.86707e-08
1.19947e-07
1.45775e-07
1.76892e-07
2.13959e-07
2.57682e-07
3.09222e-07
3.70342e-07
4.44241e-07
5.31792e-07
6.33335e-07
7.46854e-07
8.71919e-07
1.00636e-06
1.14958e-06
1.30569e-06
1.48563e-06
1.7039e-06
1.96995e-06
2.28509e-06
2.63762e-06
3.01915e-06
3.42475e-06
3.8553e-06
4.31172e-06
4.79147e-06
5.28792e-06
5.79121e-06
6.29055e-06
6.77611e-06
7.24065e-06
7.6818e-06
8.0912e-06
8.47473e-06
8.83479e-06
9.20784e-06
9.61368e-06
1.00527e-05
1.05075e-05
1.09811e-05
1.15956e-05
1.2555e-05
1.40458e-05
1.60014e-05
2.36701e-09
2.44934e-09
2.53677e-09
2.62967e-09
2.73022e-09
2.84181e-09
2.96843e-09
3.11411e-09
3.28274e-09
3.47802e-09
3.70361e-09
3.96332e-09
4.2613e-09
4.60234e-09
4.9921e-09
5.43748e-09
5.94694e-09
6.53097e-09
7.20261e-09
7.97814e-09
8.8779e-09
9.92733e-09
1.11583e-08
1.26108e-08
1.4335e-08
1.63936e-08
1.88656e-08
2.18506e-08
2.5474e-08
2.98947e-08
3.53137e-08
4.19843e-08
5.02227e-08
6.04157e-08
7.30278e-08
8.85984e-08
1.07734e-07
1.31064e-07
1.59247e-07
1.92882e-07
2.32766e-07
2.80291e-07
3.36049e-07
4.00775e-07
4.73829e-07
5.56072e-07
6.45982e-07
7.4336e-07
8.45041e-07
9.48689e-07
1.05673e-06
1.18082e-06
1.34161e-06
1.55863e-06
1.8377e-06
2.17879e-06
2.55786e-06
2.96693e-06
3.40296e-06
3.87399e-06
4.3855e-06
4.93646e-06
5.51831e-06
6.11746e-06
6.71955e-06
7.312e-06
7.88591e-06
8.43687e-06
8.96382e-06
9.46969e-06
9.9626e-06
1.04642e-05
1.09779e-05
1.14871e-05
1.19805e-05
1.2521e-05
1.33183e-05
1.45739e-05
1.63341e-05
1.84622e-05
2.36776e-09
2.45187e-09
2.54144e-09
2.6366e-09
2.7394e-09
2.85325e-09
2.98219e-09
3.13038e-09
3.30185e-09
3.50052e-09
3.73025e-09
3.99511e-09
4.29959e-09
4.64885e-09
5.04907e-09
5.50769e-09
6.0339e-09
6.63903e-09
7.33715e-09
8.14576e-09
9.08665e-09
1.0187e-08
1.14809e-08
1.30109e-08
1.48304e-08
1.70066e-08
1.96241e-08
2.27898e-08
2.66391e-08
3.13432e-08
3.71181e-08
4.42344e-08
5.30256e-08
6.38953e-08
7.73231e-08
9.38638e-08
1.14139e-07
1.38894e-07
1.68782e-07
2.04425e-07
2.46365e-07
2.94565e-07
3.49179e-07
4.1026e-07
4.77722e-07
5.51384e-07
6.28501e-07
7.07097e-07
7.83822e-07
8.57272e-07
9.3367e-07
1.03277e-06
1.18436e-06
1.41065e-06
1.71114e-06
2.06237e-06
2.47476e-06
2.90768e-06
3.36737e-06
3.8743e-06
4.43856e-06
5.06099e-06
5.72983e-06
6.42667e-06
7.13331e-06
7.83418e-06
8.51882e-06
9.18208e-06
9.82376e-06
1.04475e-05
1.10585e-05
1.16606e-05
1.22465e-05
1.28067e-05
1.33747e-05
1.4083e-05
1.51341e-05
1.66532e-05
1.86035e-05
2.08318e-05
2.36829e-09
2.45333e-09
2.54405e-09
2.64047e-09
2.74461e-09
2.85985e-09
2.99028e-09
3.14013e-09
3.31351e-09
3.51446e-09
3.74697e-09
4.01528e-09
4.32407e-09
4.67877e-09
5.08582e-09
5.55306e-09
6.09008e-09
6.70873e-09
7.42366e-09
8.25308e-09
9.21965e-09
1.03515e-08
1.16839e-08
1.32607e-08
1.51373e-08
1.73834e-08
2.00871e-08
2.33596e-08
2.7342e-08
3.22128e-08
3.81969e-08
4.55755e-08
5.4695e-08
6.5975e-08
7.99116e-08
9.7069e-08
1.18045e-07
1.43359e-07
1.73513e-07
2.08906e-07
2.49719e-07
2.95962e-07
3.47654e-07
4.04186e-07
4.64742e-07
5.28003e-07
5.91367e-07
6.51755e-07
7.0571e-07
7.52478e-07
8.01428e-07
8.80068e-07
1.02624e-06
1.26325e-06
1.585e-06
1.95791e-06
2.35486e-06
2.80926e-06
3.29737e-06
3.83251e-06
4.4425e-06
5.13217e-06
5.88515e-06
6.67777e-06
7.4885e-06
8.29833e-06
9.09522e-06
9.8729e-06
1.06301e-05
1.13682e-05
1.20878e-05
1.27849e-05
1.34528e-05
1.41039e-05
1.48131e-05
1.57326e-05
1.70207e-05
1.87342e-05
2.08001e-05
2.30734e-05
2.36843e-09
2.45356e-09
2.54445e-09
2.64111e-09
2.74556e-09
2.86119e-09
2.99209e-09
3.1425e-09
3.31656e-09
3.51831e-09
3.75179e-09
4.02127e-09
4.3315e-09
4.68795e-09
5.09717e-09
5.56709e-09
6.10742e-09
6.73012e-09
7.45e-09
8.28538e-09
9.25902e-09
1.03993e-08
1.17416e-08
1.33302e-08
1.52203e-08
1.7482e-08
2.0204e-08
2.34986e-08
2.75085e-08
3.24134e-08
3.84388e-08
4.58638e-08
5.50276e-08
6.63326e-08
8.02406e-08
9.72563e-08
1.17893e-07
1.42635e-07
1.71912e-07
2.05949e-07
2.44761e-07
2.8814e-07
3.35655e-07
3.8644e-07
4.39243e-07
4.9227e-07
5.42837e-07
5.87563e-07
6.22718e-07
6.47188e-07
6.71807e-07
7.31533e-07
8.6985e-07
1.11072e-06
1.44484e-06
1.83999e-06
2.24836e-06
2.66272e-06
3.15295e-06
3.7185e-06
4.36996e-06
5.11691e-06
5.94496e-06
6.82612e-06
7.73694e-06
8.65346e-06
9.56244e-06
1.0456e-05
1.13316e-05
1.21881e-05
1.30232e-05
1.38327e-05
1.46178e-05
1.54116e-05
1.6305e-05
1.74352e-05
1.89135e-05
2.07558e-05
2.28805e-05
2.51594e-05
2.36811e-09
2.45252e-09
2.54259e-09
2.63843e-09
2.74213e-09
2.85709e-09
2.98739e-09
3.13721e-09
3.31063e-09
3.51161e-09
3.7441e-09
4.01228e-09
4.32079e-09
4.675e-09
5.08131e-09
5.54746e-09
6.08294e-09
6.69943e-09
7.4114e-09
8.23672e-09
9.19761e-09
1.03216e-08
1.16431e-08
1.32048e-08
1.50606e-08
1.72779e-08
1.9942e-08
2.31611e-08
2.70722e-08
3.1848e-08
3.77042e-08
4.49069e-08
5.37764e-08
6.4689e-08
7.80693e-08
9.43727e-08
1.14053e-07
1.37519e-07
1.65078e-07
1.96849e-07
2.32718e-07
2.72304e-07
3.14929e-07
3.59545e-07
4.04702e-07
4.48459e-07
4.88213e-07
5.20607e-07
5.41589e-07
5.48565e-07
5.53749e-07
5.92879e-07
7.14867e-07
9.4911e-07
1.28112e-06
1.67803e-06
2.10709e-06
2.53532e-06
2.96649e-06
3.50009e-06
4.16935e-06
4.97269e-06
5.87058e-06
6.82569e-06
7.82822e-06
8.84472e-06
9.86276e-06
1.08721e-05
1.187e-05
1.28541e-05
1.38225e-05
1.47747e-05
1.57198e-05
1.66982e-05
1.77946e-05
1.91171e-05
2.07409e-05
2.2663e-05
2.48057e-05
2.70589e-05
2.36743e-09
2.45024e-09
2.53846e-09
2.63244e-09
2.73438e-09
2.84771e-09
2.97644e-09
3.12464e-09
3.29623e-09
3.495e-09
3.72472e-09
3.98934e-09
4.29325e-09
4.6415e-09
5.04011e-09
5.49637e-09
6.0192e-09
6.61957e-09
7.31108e-09
8.11052e-09
9.03876e-09
1.01216e-08
1.13912e-08
1.28873e-08
1.46598e-08
1.67707e-08
1.92979e-08
2.234e-08
2.60216e-08
3.04997e-08
3.59706e-08
4.26763e-08
5.09085e-08
6.10081e-08
7.33573e-08
8.83612e-08
1.06416e-07
1.27862e-07
1.52926e-07
1.81646e-07
2.13821e-07
2.48968e-07
2.86295e-07
3.24675e-07
3.62626e-07
3.9827e-07
4.29239e-07
4.52492e-07
4.64006e-07
4.59699e-07
4.51583e-07
4.69688e-07
5.65586e-07
7.79505e-07
1.09519e-06
1.47901e-06
1.89666e-06
2.3331e-06
2.78097e-06
3.25312e-06
3.86021e-06
4.63651e-06
5.57791e-06
6.62894e-06
7.7099e-06
8.8121e-06
9.93151e-06
1.1052e-05
1.21738e-05
1.32944e-05
1.44151e-05
1.55395e-05
1.66801e-05
1.78723e-05
1.91808e-05
2.06819e-05
2.24236e-05
2.43941e-05
2.65228e-05
2.87148e-05
2.36659e-09
2.4468e-09
2.53211e-09
2.62323e-09
2.72253e-09
2.83345e-09
2.95989e-09
3.10573e-09
3.27467e-09
3.47023e-09
3.6959e-09
3.9553e-09
4.25242e-09
4.59186e-09
4.97905e-09
5.42054e-09
5.92436e-09
6.50037e-09
7.16075e-09
7.9206e-09
8.79859e-09
9.81789e-09
1.10071e-08
1.24016e-08
1.40448e-08
1.5991e-08
1.83068e-08
2.10755e-08
2.44019e-08
2.84175e-08
3.32865e-08
3.92128e-08
4.64436e-08
5.527e-08
6.60202e-08
7.90445e-08
9.46859e-08
1.13236e-07
1.34876e-07
1.59608e-07
1.87199e-07
2.17133e-07
2.48595e-07
2.80463e-07
3.11329e-07
3.39497e-07
3.62973e-07
3.79336e-07
3.85348e-07
3.76736e-07
3.62802e-07
3.65099e-07
4.31081e-07
6.0767e-07
8.94245e-07
1.24946e-06
1.64226e-06
2.05238e-06
2.48749e-06
2.96653e-06
3.50217e-06
4.21482e-06
5.08164e-06
6.10871e-06
7.27096e-06
8.48847e-06
9.69478e-06
1.09109e-05
1.21503e-05
1.34061e-05
1.46865e-05
1.59996e-05
1.73564e-05
1.87808e-05
2.03124e-05
2.19944e-05
2.38482e-05
2.58506e-05
2.7931e-05
2.99989e-05
2.3659e-09
2.4423e-09
2.52357e-09
2.61089e-09
2.70684e-09
2.81487e-09
2.93868e-09
3.08188e-09
3.24788e-09
3.43987e-09
3.66097e-09
3.91441e-09
4.2037e-09
4.53286e-09
4.90658e-09
5.3305e-09
5.81146e-09
6.35785e-09
6.97999e-09
7.69066e-09
8.50564e-09
9.44449e-09
1.05313e-08
1.17955e-08
1.32734e-08
1.50085e-08
1.70541e-08
1.94741e-08
2.23465e-08
2.57683e-08
2.98603e-08
3.47708e-08
4.06805e-08
4.78039e-08
5.63851e-08
6.66889e-08
7.89813e-08
9.34969e-08
1.10389e-07
1.29664e-07
1.51118e-07
1.74292e-07
1.98434e-07
2.22534e-07
2.45359e-07
2.65507e-07
2.81499e-07
2.91841e-07
2.94955e-07
2.88659e-07
2.78171e-07
2.76225e-07
3.17651e-07
4.47614e-07
6.89302e-07
1.00102e-06
1.35397e-06
1.72461e-06
2.11351e-06
2.54613e-06
3.05799e-06
3.65404e-06
4.46143e-06
5.4125e-06
6.49177e-06
7.69802e-06
9.00495e-06
1.03439e-05
1.16809e-05
1.30484e-05
1.44711e-05
1.59629e-05
1.75324e-05
1.91918e-05
2.0957e-05
2.28366e-05
2.48171e-05
2.68449e-05
2.88206e-05
3.06188e-05
2.36574e-09
2.43674e-09
2.5127e-09
2.59537e-09
2.68755e-09
2.79257e-09
2.91387e-09
3.05474e-09
3.21818e-09
3.40701e-09
3.62397e-09
3.87186e-09
4.15368e-09
4.47284e-09
4.83324e-09
5.23948e-09
5.69708e-09
6.21271e-09
6.79454e-09
7.45258e-09
8.19919e-09
9.04958e-09
1.00225e-08
1.1141e-08
1.24326e-08
1.39307e-08
1.56738e-08
1.77069e-08
2.00815e-08
2.28573e-08
2.61059e-08
2.9915e-08
3.43907e-08
3.96548e-08
4.58381e-08
5.30735e-08
6.14875e-08
7.11836e-08
8.22172e-08
9.45532e-08
1.08021e-07
1.22316e-07
1.37007e-07
1.51413e-07
1.64662e-07
1.75886e-07
1.84335e-07
1.89505e-07
1.91189e-07
1.90031e-07
1.88632e-07
1.94395e-07
2.24578e-07
3.13688e-07
4.95131e-07
7.52727e-07
1.04966e-06
1.36633e-06
1.69718e-06
2.05584e-06
2.47517e-06
2.99775e-06
3.6292e-06
4.47002e-06
5.46136e-06
6.58893e-06
7.8131e-06
9.12834e-06
1.05356e-05
1.20129e-05
1.35501e-05
1.51683e-05
1.69044e-05
1.87636e-05
2.07489e-05
2.28378e-05
2.49683e-05
2.70172e-05
2.87737e-05
2.99301e-05
2.36642e-09
2.42984e-09
2.49907e-09
2.57635e-09
2.66462e-09
2.76698e-09
2.88647e-09
3.02592e-09
3.18792e-09
3.37488e-09
3.58915e-09
3.83313e-09
4.10938e-09
4.42074e-09
4.77039e-09
5.16191e-09
5.59948e-09
6.08806e-09
6.63356e-09
7.24307e-09
7.92525e-09
8.69067e-09
9.55236e-09
1.05263e-08
1.16319e-08
1.28923e-08
1.4334e-08
1.59863e-08
1.78801e-08
2.0048e-08
2.25262e-08
2.53596e-08
2.86034e-08
3.23154e-08
3.65399e-08
4.13055e-08
4.66274e-08
5.25047e-08
5.89161e-08
6.57937e-08
7.29804e-08
8.03074e-08
8.75901e-08
9.45145e-08
1.00659e-07
1.05706e-07
1.09432e-07
1.11769e-07
1.12938e-07
1.13633e-07
1.15032e-07
1.24434e-07
1.50455e-07
2.08621e-07
3.27618e-07
5.24292e-07
7.57736e-07
1.00423e-06
1.26484e-06
1.54255e-06
1.85147e-06
2.22716e-06
2.69439e-06
3.30083e-06
4.08451e-06
5.05006e-06
6.15102e-06
7.36586e-06
8.68082e-06
1.0103e-05
1.16368e-05
1.32901e-05
1.50738e-05
1.70122e-05
1.9124e-05
2.13753e-05
2.3659e-05
2.57411e-05
2.71175e-05
2.69728e-05
2.3672e-09
2.4207e-09
2.48165e-09
2.553e-09
2.6376e-09
2.73816e-09
2.85713e-09
2.99677e-09
3.1592e-09
3.34643e-09
3.56048e-09
3.80341e-09
4.07748e-09
4.38511e-09
4.72898e-09
5.11185e-09
5.53663e-09
6.00682e-09
6.52628e-09
7.09937e-09
7.73113e-09
8.42755e-09
9.19592e-09
1.00453e-08
1.0987e-08
1.20353e-08
1.32071e-08
1.45224e-08
1.60034e-08
1.76738e-08
1.95625e-08
2.17128e-08
2.4185e-08
2.70193e-08
3.0213e-08
3.37347e-08
3.75407e-08
4.158e-08
4.58001e-08
5.01409e-08
5.45523e-08
5.89697e-08
6.33998e-08
6.7682e-08
7.14663e-08
7.47324e-08
7.74944e-08
7.97894e-08
8.17791e-08
8.39612e-08
8.75843e-08
9.43901e-08
1.0423e-07
1.36752e-07
2.07131e-07
3.26813e-07
4.82333e-07
6.57946e-07
8.54357e-07
1.05065e-06
1.25169e-06
1.49782e-06
1.7795e-06
2.10511e-06
2.54259e-06
3.18076e-06
3.97332e-06
4.90826e-06
5.97796e-06
7.19251e-06
8.53795e-06
9.99751e-06
1.15933e-05
1.33181e-05
1.52533e-05
1.74058e-05
1.97067e-05
2.19442e-05
2.35665e-05
2.24305e-05
2.36772e-09
2.40771e-09
2.45867e-09
2.52381e-09
2.60541e-09
2.70555e-09
2.82587e-09
2.96794e-09
3.13339e-09
3.32384e-09
3.54107e-09
3.78695e-09
4.06363e-09
4.3731e-09
4.71834e-09
5.10157e-09
5.52426e-09
5.98929e-09
6.4989e-09
7.05517e-09
7.66005e-09
8.31536e-09
9.02302e-09
9.78535e-09
1.06057e-08
1.14892e-08
1.24444e-08
1.34852e-08
1.46336e-08
1.59247e-08
1.74167e-08
1.92117e-08
2.14685e-08
2.42601e-08
2.756e-08
3.13074e-08
3.54437e-08
3.9947e-08
4.4725e-08
4.97014e-08
5.48014e-08
5.99339e-08
6.49473e-08
6.97965e-08
7.45446e-08
7.90378e-08
8.32201e-08
8.70638e-08
9.05812e-08
9.38791e-08
9.73366e-08
1.01634e-07
1.08043e-07
1.23065e-07
1.47883e-07
1.95704e-07
2.88628e-07
3.89556e-07
4.82661e-07
5.75756e-07
7.11872e-07
8.70281e-07
1.05056e-06
1.25643e-06
1.49441e-06
1.73312e-06
2.06312e-06
2.48024e-06
2.98745e-06
3.5986e-06
4.34819e-06
5.29116e-06
6.3755e-06
7.47577e-06
8.69853e-06
1.01072e-05
1.16776e-05
1.31847e-05
1.4176e-05
1.2193e-05
2.36793e-09
2.38769e-09
2.42723e-09
2.48655e-09
2.56617e-09
2.66763e-09
2.79165e-09
2.93894e-09
3.11058e-09
3.30788e-09
3.53248e-09
3.78629e-09
4.07207e-09
4.38928e-09
4.74465e-09
5.14061e-09
5.57431e-09
6.0512e-09
6.5721e-09
7.13762e-09
7.74737e-09
8.39986e-09
9.09225e-09
9.82047e-09
1.05796e-08
1.13645e-08
1.21712e-08
1.30041e-08
1.38812e-08
1.4849e-08
1.60192e-08
1.7632e-08
2.01795e-08
2.37264e-08
2.81516e-08
3.33904e-08
3.93797e-08
4.62738e-08
5.38732e-08
6.20983e-08
7.08328e-08
7.99094e-08
8.91255e-08
9.82626e-08
1.07095e-07
1.15395e-07
1.22969e-07
1.29711e-07
1.35672e-07
1.40773e-07
1.45482e-07
1.50473e-07
1.56711e-07
1.65997e-07
1.78832e-07
1.95476e-07
2.15437e-07
2.35316e-07
2.54758e-07
2.80158e-07
3.39868e-07
4.62201e-07
6.10527e-07
7.69884e-07
9.27117e-07
1.06709e-06
1.1833e-06
1.27923e-06
1.36093e-06
1.43963e-06
1.5092e-06
1.5772e-06
1.64471e-06
1.71916e-06
1.8069e-06
1.91232e-06
2.04535e-06
2.20802e-06
2.4615e-06
3.17254e-06
8.3582e-07
9.035e-07
1.01693e-06
1.14213e-06
1.26664e-06
1.38662e-06
1.5036e-06
1.60076e-06
1.67266e-06
1.73834e-06
1.79521e-06
1.84792e-06
1.92882e-06
2.10376e-06
2.34937e-06
2.66973e-06
3.02682e-06
3.40496e-06
3.80303e-06
4.2183e-06
4.59524e-06
4.94846e-06
5.27713e-06
5.58993e-06
5.88768e-06
6.17388e-06
6.44949e-06
6.71595e-06
6.97387e-06
7.22417e-06
7.46679e-06
7.7006e-06
7.9267e-06
8.15154e-06
8.36904e-06
8.55439e-06
8.72458e-06
8.89092e-06
9.04805e-06
9.20466e-06
9.35513e-06
9.49695e-06
9.6301e-06
9.75456e-06
9.87026e-06
9.97731e-06
1.00762e-05
1.01678e-05
1.02518e-05
1.03281e-05
1.03961e-05
1.04548e-05
1.05035e-05
1.05422e-05
1.05722e-05
1.05942e-05
1.06086e-05
1.06154e-05
1.06146e-05
1.06065e-05
1.0591e-05
1.05685e-05
1.05391e-05
1.05031e-05
1.04607e-05
1.04122e-05
1.03579e-05
1.0298e-05
1.02327e-05
1.01621e-05
1.00866e-05
1.00067e-05
9.9203e-06
9.82982e-06
9.74278e-06
9.65944e-06
9.61441e-06
9.62987e-06
9.67415e-06
9.72499e-06
9.7751e-06
9.82531e-06
9.87607e-06
9.9247e-06
9.96863e-06
1.00137e-05
1.00571e-05
1.00898e-05
1.01183e-05
1.01568e-05
1.02101e-05
1.02548e-05
1.02935e-05
1.03281e-05
1.03608e-05
1.03922e-05
1.04228e-05
1.04527e-05
1.04822e-05
1.05115e-05
1.05404e-05
1.0569e-05
1.0597e-05
1.06246e-05
1.06515e-05
1.06779e-05
1.07036e-05
1.07285e-05
1.07526e-05
1.07757e-05
1.07979e-05
1.08192e-05
1.08395e-05
1.08587e-05
1.08768e-05
1.08937e-05
1.09093e-05
1.09236e-05
1.09367e-05
1.09484e-05
1.09588e-05
1.09679e-05
1.09758e-05
1.09825e-05
1.0988e-05
1.09923e-05
1.09955e-05
1.09975e-05
1.09984e-05
1.09974e-05
1.09948e-05
1.09934e-05
1.09923e-05
1.09796e-05
1.09839e-05
1.09633e-05
1.09586e-05
1.09479e-05
1.09368e-05
1.09247e-05
1.09123e-05
1.08987e-05
1.08844e-05
1.08696e-05
1.08544e-05
1.08387e-05
1.08225e-05
1.08058e-05
1.07885e-05
1.07709e-05
1.07513e-05
1.07338e-05
1.07159e-05
1.06948e-05
1.0674e-05
1.06539e-05
1.06343e-05
1.06149e-05
1.05958e-05
1.05769e-05
1.05583e-05
1.054e-05
1.05221e-05
1.05048e-05
1.0488e-05
1.04718e-05
1.04562e-05
1.04411e-05
1.04264e-05
1.04121e-05
1.0398e-05
1.03839e-05
1.03699e-05
1.03561e-05
1.03424e-05
1.03291e-05
1.03162e-05
1.03034e-05
1.02908e-05
1.02785e-05
1.02662e-05
1.02541e-05
1.02424e-05
1.02312e-05
1.02208e-05
1.0211e-05
1.02017e-05
1.01931e-05
1.0185e-05
1.01772e-05
1.01697e-05
1.01622e-05
1.01546e-05
1.01469e-05
1.01389e-05
1.01308e-05
1.01229e-05
1.01154e-05
1.01082e-05
1.01014e-05
1.00948e-05
1.00883e-05
1.00819e-05
1.00756e-05
1.00697e-05
1.00643e-05
1.00596e-05
1.00555e-05
1.00521e-05
1.0049e-05
1.0046e-05
1.00429e-05
1.00395e-05
1.00358e-05
1.00318e-05
1.00275e-05
1.0023e-05
1.00187e-05
1.00146e-05
1.0011e-05
1.00076e-05
1.00045e-05
1.00014e-05
9.99837e-06
9.9954e-06
9.99262e-06
9.99015e-06
9.98807e-06
9.98644e-06
9.98524e-06
9.98441e-06
9.98368e-06
9.9828e-06
9.98166e-06
9.98012e-06
9.97813e-06
9.9758e-06
9.97334e-06
9.971e-06
9.96906e-06
9.96766e-06
9.96676e-06
9.96617e-06
9.96566e-06
9.96504e-06
9.9643e-06
9.96353e-06
9.96286e-06
9.96242e-06
9.96227e-06
9.96239e-06
9.96274e-06
9.96317e-06
9.96349e-06
9.96356e-06
9.96335e-06
9.96288e-06
9.96219e-06
9.96134e-06
9.96041e-06
9.95953e-06
9.95885e-06
9.95849e-06
9.95856e-06
9.95901e-06
9.95964e-06
9.96014e-06
9.96032e-06
9.96023e-06
9.96005e-06
9.96009e-06
9.96048e-06
9.96123e-06
9.9622e-06
9.96316e-06
9.96394e-06
9.96442e-06
9.96462e-06
9.96461e-06
9.9645e-06
9.96439e-06
9.96438e-06
9.96452e-06
9.96486e-06
9.96539e-06
9.96612e-06
9.96702e-06
9.96803e-06
9.96903e-06
9.96984e-06
9.97033e-06
9.9705e-06
9.97048e-06
9.97047e-06
9.97072e-06
9.97132e-06
9.97219e-06
9.97308e-06
9.9737e-06
9.97395e-06
9.97389e-06
9.9737e-06
9.97358e-06
9.97364e-06
9.97391e-06
9.97435e-06
9.9749e-06
9.97548e-06
9.97605e-06
9.97659e-06
9.97708e-06
9.97748e-06
9.97773e-06
9.97779e-06
9.97766e-06
9.97739e-06
9.97709e-06
9.97694e-06
9.97712e-06
9.97761e-06
9.97807e-06
9.97824e-06
9.97806e-06
9.97755e-06
9.97687e-06
9.97619e-06
9.97574e-06
9.97577e-06
9.97605e-06
9.97624e-06
9.97618e-06
9.97588e-06
9.97539e-06
9.97476e-06
9.97402e-06
9.97322e-06
9.97237e-06
9.97147e-06
9.97055e-06
9.96967e-06
9.96891e-06
9.96834e-06
9.96788e-06
9.96731e-06
9.96646e-06
9.96526e-06
9.96377e-06
9.96213e-06
9.96054e-06
9.95921e-06
9.95819e-06
9.95731e-06
9.95627e-06
9.95481e-06
9.95295e-06
9.95086e-06
9.94874e-06
9.9467e-06
9.94476e-06
9.94285e-06
9.94089e-06
9.93886e-06
9.93676e-06
9.93463e-06
9.9325e-06
9.93034e-06
9.9281e-06
9.92567e-06
9.923e-06
9.92014e-06
9.91718e-06
9.91427e-06
9.91148e-06
9.90881e-06
9.90618e-06
9.90342e-06
9.90039e-06
9.89701e-06
9.89338e-06
9.88969e-06
9.88612e-06
9.88273e-06
9.87943e-06
9.87607e-06
9.87252e-06
9.86877e-06
9.86487e-06
9.86089e-06
9.85685e-06
9.85276e-06
9.84858e-06
9.84427e-06
9.83983e-06
9.83528e-06
9.8307e-06
9.82614e-06
9.82158e-06
9.817e-06
9.8123e-06
9.80741e-06
9.8023e-06
9.79701e-06
9.79163e-06
9.78627e-06
9.78098e-06
9.77574e-06
9.77045e-06
9.76498e-06
9.75928e-06
9.75336e-06
9.74732e-06
9.74124e-06
9.73515e-06
9.72904e-06
9.72284e-06
9.71651e-06
9.71006e-06
9.70352e-06
9.69691e-06
9.69025e-06
9.68353e-06
9.67672e-06
9.66977e-06
9.66267e-06
9.65542e-06
9.64807e-06
9.64067e-06
9.63325e-06
9.62581e-06
9.61829e-06
9.61064e-06
9.60281e-06
9.5948e-06
9.58665e-06
9.57843e-06
9.57019e-06
9.56192e-06
9.5536e-06
9.54516e-06
9.53658e-06
9.52785e-06
9.51901e-06
9.5101e-06
9.50112e-06
9.49206e-06
9.48288e-06
9.47333e-06
9.46405e-06
9.45481e-06
9.44489e-06
9.43524e-06
9.42549e-06
9.41564e-06
9.40574e-06
9.39551e-06
9.38477e-06
9.379e-06
9.35883e-06
9.37e-06
9.32911e-06
9.34314e-06
9.3141e-06
9.31262e-06
9.29881e-06
9.28795e-06
9.27669e-06
9.26522e-06
9.25366e-06
9.24207e-06
9.23046e-06
9.21881e-06
9.20713e-06
9.19539e-06
9.18364e-06
9.17182e-06
9.15992e-06
9.14787e-06
9.13567e-06
9.12334e-06
9.11089e-06
9.09849e-06
9.0857e-06
9.07306e-06
9.06166e-06
9.04381e-06
9.03553e-06
9.03528e-06
8.98866e-06
8.97968e-06
8.99522e-06
8.95883e-06
8.94406e-06
8.93163e-06
8.91961e-06
8.90722e-06
8.89425e-06
8.8808e-06
8.86707e-06
8.85313e-06
8.83899e-06
8.82464e-06
8.81015e-06
8.79559e-06
8.78069e-06
8.76623e-06
8.75116e-06
8.73621e-06
8.72109e-06
8.7058e-06
8.69039e-06
8.67485e-06
8.65916e-06
8.64338e-06
8.62741e-06
8.61144e-06
8.595e-06
8.57911e-06
8.56179e-06
8.54558e-06
8.52787e-06
8.51106e-06
8.4936e-06
8.47621e-06
8.45886e-06
8.44151e-06
8.42418e-06
8.40686e-06
8.38953e-06
8.3722e-06
8.35485e-06
8.33747e-06
8.32006e-06
8.30259e-06
8.28507e-06
8.2675e-06
8.24986e-06
8.23214e-06
8.21434e-06
8.19645e-06
8.17846e-06
8.16037e-06
8.14219e-06
8.12392e-06
8.10557e-06
8.08712e-06
8.06859e-06
8.04997e-06
8.03126e-06
8.01247e-06
7.9936e-06
7.97465e-06
7.95563e-06
7.93653e-06
7.91736e-06
7.89811e-06
7.8788e-06
7.85942e-06
7.83997e-06
7.82046e-06
7.80086e-06
7.78123e-06
7.76147e-06
7.74166e-06
7.72175e-06
7.70179e-06
7.68176e-06
7.66169e-06
7.64159e-06
7.62145e-06
7.60129e-06
7.58111e-06
7.56091e-06
7.54069e-06
7.52047e-06
7.50024e-06
7.48e-06
7.45975e-06
7.43951e-06
7.41924e-06
7.39899e-06
7.37866e-06
7.35836e-06
7.33796e-06
7.31759e-06
7.29713e-06
7.27671e-06
7.25636e-06
7.23596e-06
7.21574e-06
7.19538e-06
7.17534e-06
7.15486e-06
7.13514e-06
7.11432e-06
7.09492e-06
7.07389e-06
7.05426e-06
7.03355e-06
7.01383e-06
6.99345e-06
6.97362e-06
6.95355e-06
6.93373e-06
6.91402e-06
6.89455e-06
6.87536e-06
6.8563e-06
6.83727e-06
6.81824e-06
6.79921e-06
6.7802e-06
6.76124e-06
6.74234e-06
6.72351e-06
6.70477e-06
6.68614e-06
6.66761e-06
6.64919e-06
6.63091e-06
6.61275e-06
6.59473e-06
6.57685e-06
6.55911e-06
6.54153e-06
6.52409e-06
6.50681e-06
6.4897e-06
6.47274e-06
6.45596e-06
6.43935e-06
6.42292e-06
6.40667e-06
6.39061e-06
6.37476e-06
6.3591e-06
6.34365e-06
6.32841e-06
6.3134e-06
6.2986e-06
6.28403e-06
6.26968e-06
6.25558e-06
6.24171e-06
6.22808e-06
6.2147e-06
6.20157e-06
6.1887e-06
6.17609e-06
6.16374e-06
6.15166e-06
6.13986e-06
6.12833e-06
6.11709e-06
6.10614e-06
6.09548e-06
6.08512e-06
6.07506e-06
6.06531e-06
6.05586e-06
6.04673e-06
6.03791e-06
6.02941e-06
6.02124e-06
6.01339e-06
6.00587e-06
5.99868e-06
5.99181e-06
5.98525e-06
5.97898e-06
5.97302e-06
5.96737e-06
5.96204e-06
5.95703e-06
5.95233e-06
5.94793e-06
5.94384e-06
5.94007e-06
5.93663e-06
5.93351e-06
5.93073e-06
5.9283e-06
5.92618e-06
5.9244e-06
5.92295e-06
5.92183e-06
5.92105e-06
5.92061e-06
5.9205e-06
5.92073e-06
5.92128e-06
5.92216e-06
5.92336e-06
5.92488e-06
5.9267e-06
5.92883e-06
5.93125e-06
5.93359e-06
5.93698e-06
5.94003e-06
5.94351e-06
5.94728e-06
5.95125e-06
5.95544e-06
5.95983e-06
5.96434e-06
5.96894e-06
5.97367e-06
5.97854e-06
5.9835e-06
5.98845e-06
5.99334e-06
5.99817e-06
6.0029e-06
6.00747e-06
6.01184e-06
6.01593e-06
6.0197e-06
6.02302e-06
6.02589e-06
6.02804e-06
1.71281e-06
3.20595e-06
4.98058e-06
6.11946e-06
7.14703e-06
8.01211e-06
8.6186e-06
8.97593e-06
9.17632e-06
9.3316e-06
9.49049e-06
9.49384e-06
9.32957e-06
9.26226e-06
9.35932e-06
9.65869e-06
1.02074e-05
1.09412e-05
1.1894e-05
1.30034e-05
1.4176e-05
1.55836e-05
1.68325e-05
1.80781e-05
1.92978e-05
2.05108e-05
2.17223e-05
2.29449e-05
2.41782e-05
2.5435e-05
2.67239e-05
2.80642e-05
2.94195e-05
3.08055e-05
3.22356e-05
3.37179e-05
3.52546e-05
3.68208e-05
3.84123e-05
4.00199e-05
4.16358e-05
4.32665e-05
4.49126e-05
4.65701e-05
4.82362e-05
4.98972e-05
5.15144e-05
5.30279e-05
5.4528e-05
5.60525e-05
5.76049e-05
5.91612e-05
6.07021e-05
6.21873e-05
6.36466e-05
6.50859e-05
6.64994e-05
6.78821e-05
6.9229e-05
7.05354e-05
7.17965e-05
7.30079e-05
7.41655e-05
7.52665e-05
7.63091e-05
7.72924e-05
7.82161e-05
7.90789e-05
7.98792e-05
8.06185e-05
8.12797e-05
8.18686e-05
8.23891e-05
8.28205e-05
8.31558e-05
8.33286e-05
8.32527e-05
8.28025e-05
8.21153e-05
8.12767e-05
8.0339e-05
7.9362e-05
7.83335e-05
7.72585e-05
7.61572e-05
7.50022e-05
7.38297e-05
7.26447e-05
7.14203e-05
7.03089e-05
6.92092e-05
6.79924e-05
6.6756e-05
6.55196e-05
6.42933e-05
6.30827e-05
6.18904e-05
6.07166e-05
5.95615e-05
5.84254e-05
5.73081e-05
5.62096e-05
5.51304e-05
5.40677e-05
5.30229e-05
5.19986e-05
5.0997e-05
5.00196e-05
4.90673e-05
4.81413e-05
4.72413e-05
4.63687e-05
4.55209e-05
4.47018e-05
4.39111e-05
4.31443e-05
4.24008e-05
4.16797e-05
4.09848e-05
4.03072e-05
3.96629e-05
3.90239e-05
3.84332e-05
3.78284e-05
3.72931e-05
3.67184e-05
3.62416e-05
3.56909e-05
3.52783e-05