/*--------------------------------*- C++ -*----------------------------------*\
| =========                 |                                                 |
| \\      /  F ield         | OpenFOAM: The Open Source CFD Toolbox           |
|  \\    /   O peration     | Version:  2412                                  |
|   \\  /    A nd           | Website:  www.openfoam.com                      |
|    \\/     M anipulation  |                                                 |
\*---------------------------------------------------------------------------*/
FoamFile
{
    version     2.0;
    format      ascii;
    arch        "LSB;label=32;scalar=64";
    class       volScalarField;
    location    "2000";
    object      p;
}
// * * * * * * * * * * * * * * * * * * * * * * * * * * * * * * * * * * * * * //

dimensions      [0 2 -2 0 0 0 0];

internalField   nonuniform List<scalar> 
150400
(
-0.0181355
-0.0181355
-0.0181355
-0.0181355
-0.0181355
-0.0181355
-0.0181355
-0.0181355
-0.0181355
-0.0181355
-0.0181355
-0.0181355
-0.0181355
-0.0181355
-0.0181355
-0.0181355
-0.0181355
-0.0181355
-0.0181355
-0.0181355
-0.0181355
-0.0181355
-0.0181355
-0.0181355
-0.0181355
-0.0181355
-0.0181355
-0.0181355
-0.0181355
-0.0181355
-0.0181356
-0.0181356
-0.0181356
-0.0181356
-0.0181356
-0.0181356
-0.0181356
-0.0181356
-0.0181356
-0.0181357
-0.0181357
-0.0181357
-0.0181357
-0.0181357
-0.0181357
-0.0181357
-0.0181356
-0.0181355
-0.0181352
-0.0181349
-0.0181343
-0.0181335
-0.0181324
-0.0181312
-0.0181298
-0.0181283
-0.0181271
-0.018126
-0.0181259
-0.0181275
-0.0181301
-0.0181341
-0.0181396
-0.0181466
-0.0181547
-0.0181635
-0.0181727
-0.0181819
-0.0181909
-0.0181993
-0.0182069
-0.0182137
-0.0182196
-0.0182245
-0.0182287
-0.0182323
-0.0182355
-0.0182386
-0.018242
-0.0182465
-0.0181355
-0.0181355
-0.0181355
-0.0181355
-0.0181355
-0.0181355
-0.0181355
-0.0181355
-0.0181355
-0.0181355
-0.0181355
-0.0181355
-0.0181355
-0.0181355
-0.0181355
-0.0181355
-0.0181355
-0.0181355
-0.0181355
-0.0181355
-0.0181355
-0.0181355
-0.0181355
-0.0181355
-0.0181355
-0.0181355
-0.0181355
-0.0181355
-0.0181355
-0.0181355
-0.0181356
-0.0181356
-0.0181356
-0.0181356
-0.0181356
-0.0181356
-0.0181356
-0.0181356
-0.0181356
-0.0181356
-0.0181356
-0.0181356
-0.0181357
-0.0181357
-0.0181356
-0.0181356
-0.0181355
-0.0181354
-0.0181352
-0.0181349
-0.0181344
-0.0181337
-0.0181328
-0.0181317
-0.0181305
-0.0181294
-0.0181283
-0.0181278
-0.018128
-0.0181294
-0.0181321
-0.0181362
-0.0181419
-0.0181489
-0.0181571
-0.0181658
-0.0181746
-0.0181836
-0.0181926
-0.018201
-0.0182084
-0.0182148
-0.0182204
-0.018225
-0.0182288
-0.0182318
-0.0182344
-0.018237
-0.0182399
-0.0182436
-0.0181355
-0.0181355
-0.0181355
-0.0181355
-0.0181355
-0.0181355
-0.0181355
-0.0181355
-0.0181355
-0.0181355
-0.0181355
-0.0181355
-0.0181355
-0.0181355
-0.0181355
-0.0181355
-0.0181355
-0.0181355
-0.0181355
-0.0181355
-0.0181355
-0.0181355
-0.0181355
-0.0181355
-0.0181355
-0.0181355
-0.0181355
-0.0181355
-0.0181355
-0.0181355
-0.0181356
-0.0181356
-0.0181356
-0.0181356
-0.0181356
-0.0181356
-0.0181356
-0.0181356
-0.0181356
-0.0181356
-0.0181356
-0.0181356
-0.0181356
-0.0181356
-0.0181356
-0.0181356
-0.0181355
-0.0181354
-0.0181353
-0.018135
-0.0181346
-0.0181341
-0.0181335
-0.0181326
-0.0181316
-0.0181307
-0.01813
-0.0181298
-0.0181306
-0.0181325
-0.0181358
-0.0181405
-0.0181466
-0.018154
-0.0181624
-0.0181714
-0.0181804
-0.0181891
-0.0181976
-0.0182053
-0.0182121
-0.0182177
-0.0182223
-0.0182261
-0.0182288
-0.0182305
-0.0182316
-0.0182327
-0.0182342
-0.0182369
-0.0181355
-0.0181355
-0.0181355
-0.0181355
-0.0181355
-0.0181355
-0.0181355
-0.0181355
-0.0181355
-0.0181355
-0.0181355
-0.0181355
-0.0181355
-0.0181355
-0.0181355
-0.0181355
-0.0181355
-0.0181355
-0.0181355
-0.0181355
-0.0181355
-0.0181355
-0.0181355
-0.0181355
-0.0181355
-0.0181355
-0.0181355
-0.0181355
-0.0181355
-0.0181355
-0.0181355
-0.0181356
-0.0181356
-0.0181356
-0.0181356
-0.0181356
-0.0181356
-0.0181356
-0.0181356
-0.0181356
-0.0181356
-0.0181356
-0.0181356
-0.0181356
-0.0181356
-0.0181356
-0.0181356
-0.0181356
-0.0181355
-0.0181353
-0.0181351
-0.0181347
-0.0181341
-0.0181334
-0.0181326
-0.0181319
-0.0181315
-0.0181317
-0.0181328
-0.0181353
-0.0181392
-0.0181446
-0.0181514
-0.0181594
-0.0181682
-0.0181774
-0.0181865
-0.0181953
-0.0182035
-0.0182108
-0.0182171
-0.0182221
-0.0182257
-0.0182281
-0.0182293
-0.0182295
-0.0182291
-0.0182287
-0.0182291
-0.0182311
-0.0181355
-0.0181355
-0.0181355
-0.0181355
-0.0181355
-0.0181355
-0.0181355
-0.0181355
-0.0181355
-0.0181355
-0.0181355
-0.0181355
-0.0181355
-0.0181355
-0.0181355
-0.0181355
-0.0181355
-0.0181355
-0.0181355
-0.0181355
-0.0181355
-0.0181355
-0.0181355
-0.0181355
-0.0181355
-0.0181355
-0.0181355
-0.0181355
-0.0181355
-0.0181355
-0.0181355
-0.0181355
-0.0181356
-0.0181356
-0.0181356
-0.0181356
-0.0181356
-0.0181356
-0.0181356
-0.0181356
-0.0181356
-0.0181356
-0.0181356
-0.0181356
-0.0181357
-0.0181357
-0.0181357
-0.0181358
-0.0181358
-0.0181357
-0.0181355
-0.0181352
-0.0181348
-0.0181342
-0.0181335
-0.0181329
-0.0181327
-0.0181332
-0.0181347
-0.0181376
-0.0181421
-0.0181482
-0.0181558
-0.0181644
-0.0181738
-0.0181834
-0.0181928
-0.0182016
-0.0182097
-0.0182167
-0.0182224
-0.0182267
-0.0182296
-0.018231
-0.0182311
-0.0182302
-0.0182285
-0.0182268
-0.018226
-0.0182266
-0.0181355
-0.0181355
-0.0181355
-0.0181355
-0.0181355
-0.0181355
-0.0181355
-0.0181355
-0.0181355
-0.0181355
-0.0181355
-0.0181355
-0.0181355
-0.0181355
-0.0181355
-0.0181355
-0.0181355
-0.0181355
-0.0181355
-0.0181355
-0.0181355
-0.0181355
-0.0181355
-0.0181355
-0.0181355
-0.0181355
-0.0181355
-0.0181355
-0.0181355
-0.0181355
-0.0181355
-0.0181355
-0.0181355
-0.0181355
-0.0181355
-0.0181356
-0.0181356
-0.0181356
-0.0181356
-0.0181356
-0.0181356
-0.0181356
-0.0181356
-0.0181357
-0.0181357
-0.0181358
-0.0181359
-0.018136
-0.018136
-0.018136
-0.018136
-0.0181357
-0.0181354
-0.0181349
-0.0181343
-0.0181339
-0.0181339
-0.0181346
-0.0181366
-0.01814
-0.0181452
-0.018152
-0.0181603
-0.0181696
-0.0181795
-0.0181895
-0.0181991
-0.0182081
-0.0182161
-0.0182228
-0.0182282
-0.018232
-0.0182342
-0.0182349
-0.0182342
-0.0182322
-0.0182295
-0.0182265
-0.0182244
-0.0182237
-0.0181355
-0.0181355
-0.0181355
-0.0181355
-0.0181355
-0.0181355
-0.0181355
-0.0181355
-0.0181355
-0.0181355
-0.0181355
-0.0181355
-0.0181355
-0.0181355
-0.0181355
-0.0181355
-0.0181355
-0.0181355
-0.0181355
-0.0181355
-0.0181355
-0.0181355
-0.0181355
-0.0181355
-0.0181355
-0.0181355
-0.0181355
-0.0181355
-0.0181355
-0.0181355
-0.0181355
-0.0181355
-0.0181355
-0.0181355
-0.0181355
-0.0181355
-0.0181355
-0.0181355
-0.0181356
-0.0181356
-0.0181356
-0.0181356
-0.0181357
-0.0181357
-0.0181358
-0.0181359
-0.0181361
-0.0181362
-0.0181363
-0.0181364
-0.0181363
-0.0181362
-0.0181359
-0.0181355
-0.0181351
-0.0181348
-0.018135
-0.0181361
-0.0181384
-0.0181425
-0.0181483
-0.0181559
-0.018165
-0.018175
-0.0181854
-0.0181957
-0.0182056
-0.0182146
-0.0182225
-0.0182291
-0.0182341
-0.0182376
-0.0182393
-0.0182395
-0.0182381
-0.0182353
-0.0182315
-0.0182277
-0.0182245
-0.0182227
-0.0181355
-0.0181355
-0.0181355
-0.0181355
-0.0181355
-0.0181355
-0.0181355
-0.0181355
-0.0181355
-0.0181355
-0.0181355
-0.0181355
-0.0181355
-0.0181355
-0.0181355
-0.0181355
-0.0181355
-0.0181355
-0.0181355
-0.0181355
-0.0181355
-0.0181355
-0.0181355
-0.0181355
-0.0181355
-0.0181355
-0.0181355
-0.0181355
-0.0181355
-0.0181355
-0.0181355
-0.0181355
-0.0181355
-0.0181355
-0.0181355
-0.0181355
-0.0181355
-0.0181355
-0.0181356
-0.0181356
-0.0181356
-0.0181356
-0.0181357
-0.0181358
-0.0181359
-0.018136
-0.0181362
-0.0181363
-0.0181365
-0.0181366
-0.0181366
-0.0181365
-0.0181363
-0.018136
-0.0181357
-0.0181356
-0.018136
-0.0181374
-0.0181402
-0.0181448
-0.0181514
-0.0181597
-0.0181695
-0.0181801
-0.018191
-0.0182017
-0.0182117
-0.0182208
-0.0182287
-0.0182351
-0.0182399
-0.0182431
-0.0182445
-0.0182442
-0.0182422
-0.0182388
-0.0182344
-0.0182298
-0.018226
-0.0182232
-0.0181355
-0.0181355
-0.0181355
-0.0181355
-0.0181355
-0.0181355
-0.0181355
-0.0181355
-0.0181355
-0.0181355
-0.0181355
-0.0181355
-0.0181355
-0.0181355
-0.0181355
-0.0181355
-0.0181355
-0.0181355
-0.0181355
-0.0181355
-0.0181355
-0.0181355
-0.0181355
-0.0181355
-0.0181355
-0.0181355
-0.0181355
-0.0181355
-0.0181355
-0.0181355
-0.0181355
-0.0181355
-0.0181355
-0.0181355
-0.0181355
-0.0181355
-0.0181355
-0.0181355
-0.0181356
-0.0181356
-0.0181356
-0.0181357
-0.0181357
-0.0181358
-0.018136
-0.0181361
-0.0181363
-0.0181365
-0.0181366
-0.0181367
-0.0181368
-0.0181368
-0.0181366
-0.0181364
-0.0181362
-0.0181362
-0.0181368
-0.0181384
-0.0181416
-0.0181467
-0.0181539
-0.0181629
-0.0181734
-0.0181845
-0.0181959
-0.0182068
-0.0182171
-0.0182262
-0.018234
-0.0182403
-0.018245
-0.018248
-0.0182491
-0.0182485
-0.0182461
-0.0182422
-0.0182374
-0.0182324
-0.018228
-0.0182246
-0.0181355
-0.0181355
-0.0181355
-0.0181355
-0.0181355
-0.0181355
-0.0181355
-0.0181355
-0.0181355
-0.0181355
-0.0181355
-0.0181355
-0.0181355
-0.0181355
-0.0181355
-0.0181355
-0.0181355
-0.0181355
-0.0181355
-0.0181355
-0.0181355
-0.0181355
-0.0181355
-0.0181355
-0.0181355
-0.0181355
-0.0181355
-0.0181355
-0.0181355
-0.0181355
-0.0181355
-0.0181355
-0.0181355
-0.0181355
-0.0181355
-0.0181355
-0.0181355
-0.0181355
-0.0181356
-0.0181356
-0.0181356
-0.0181357
-0.0181358
-0.0181359
-0.018136
-0.0181362
-0.0181363
-0.0181365
-0.0181367
-0.0181368
-0.0181369
-0.0181369
-0.0181368
-0.0181366
-0.0181365
-0.0181366
-0.0181373
-0.0181391
-0.0181425
-0.018148
-0.0181556
-0.0181652
-0.0181762
-0.0181878
-0.0181995
-0.0182108
-0.0182211
-0.0182303
-0.0182381
-0.0182444
-0.0182489
-0.0182517
-0.0182527
-0.0182517
-0.018249
-0.0182448
-0.0182398
-0.0182345
-0.0182299
-0.0182264
-0.0181355
-0.0181355
-0.0181355
-0.0181355
-0.0181355
-0.0181355
-0.0181355
-0.0181355
-0.0181355
-0.0181355
-0.0181355
-0.0181355
-0.0181355
-0.0181355
-0.0181355
-0.0181355
-0.0181355
-0.0181355
-0.0181355
-0.0181355
-0.0181355
-0.0181355
-0.0181355
-0.0181355
-0.0181355
-0.0181355
-0.0181355
-0.0181355
-0.0181355
-0.0181355
-0.0181355
-0.0181355
-0.0181355
-0.0181355
-0.0181355
-0.0181355
-0.0181355
-0.0181355
-0.0181356
-0.0181356
-0.0181356
-0.0181357
-0.0181358
-0.0181359
-0.018136
-0.0181362
-0.0181364
-0.0181365
-0.0181367
-0.0181368
-0.0181369
-0.0181369
-0.0181369
-0.0181368
-0.0181367
-0.0181368
-0.0181376
-0.0181393
-0.0181428
-0.0181484
-0.0181563
-0.0181663
-0.0181776
-0.0181896
-0.0182016
-0.0182131
-0.0182236
-0.0182328
-0.0182406
-0.0182468
-0.0182512
-0.018254
-0.0182547
-0.0182533
-0.0182503
-0.0182459
-0.0182406
-0.0182353
-0.0182308
-0.0182279
-0.0181355
-0.0181355
-0.0181355
-0.0181355
-0.0181355
-0.0181355
-0.0181355
-0.0181355
-0.0181355
-0.0181355
-0.0181355
-0.0181355
-0.0181355
-0.0181355
-0.0181355
-0.0181355
-0.0181355
-0.0181355
-0.0181355
-0.0181355
-0.0181355
-0.0181355
-0.0181355
-0.0181355
-0.0181355
-0.0181355
-0.0181355
-0.0181355
-0.0181355
-0.0181355
-0.0181355
-0.0181355
-0.0181355
-0.0181355
-0.0181355
-0.0181355
-0.0181355
-0.0181356
-0.0181356
-0.0181356
-0.0181356
-0.0181357
-0.0181358
-0.0181359
-0.018136
-0.0181362
-0.0181363
-0.0181365
-0.0181367
-0.0181368
-0.0181369
-0.0181369
-0.0181369
-0.0181368
-0.0181367
-0.0181369
-0.0181375
-0.0181391
-0.0181424
-0.0181478
-0.0181557
-0.0181657
-0.0181773
-0.0181896
-0.0182019
-0.0182136
-0.0182242
-0.0182334
-0.0182412
-0.0182472
-0.0182514
-0.0182538
-0.0182542
-0.0182525
-0.0182491
-0.0182444
-0.018239
-0.0182338
-0.0182301
-0.0182287
-0.0181355
-0.0181355
-0.0181355
-0.0181355
-0.0181355
-0.0181355
-0.0181355
-0.0181355
-0.0181355
-0.0181355
-0.0181355
-0.0181355
-0.0181355
-0.0181355
-0.0181355
-0.0181355
-0.0181355
-0.0181355
-0.0181355
-0.0181355
-0.0181355
-0.0181355
-0.0181355
-0.0181355
-0.0181355
-0.0181355
-0.0181355
-0.0181355
-0.0181355
-0.0181355
-0.0181355
-0.0181355
-0.0181355
-0.0181355
-0.0181355
-0.0181355
-0.0181355
-0.0181356
-0.0181356
-0.0181356
-0.0181356
-0.0181357
-0.0181358
-0.0181359
-0.018136
-0.0181361
-0.0181363
-0.0181365
-0.0181366
-0.0181368
-0.0181368
-0.0181369
-0.0181369
-0.0181368
-0.0181368
-0.0181369
-0.0181373
-0.0181386
-0.0181414
-0.0181464
-0.0181539
-0.0181637
-0.0181753
-0.0181878
-0.0182002
-0.018212
-0.0182227
-0.0182319
-0.0182395
-0.0182453
-0.0182491
-0.0182509
-0.0182507
-0.0182485
-0.0182445
-0.0182394
-0.0182339
-0.0182294
-0.0182273
-0.018229
-0.0181355
-0.0181355
-0.0181355
-0.0181355
-0.0181355
-0.0181355
-0.0181355
-0.0181355
-0.0181355
-0.0181355
-0.0181355
-0.0181355
-0.0181355
-0.0181355
-0.0181355
-0.0181355
-0.0181355
-0.0181355
-0.0181355
-0.0181355
-0.0181355
-0.0181355
-0.0181355
-0.0181355
-0.0181355
-0.0181355
-0.0181355
-0.0181355
-0.0181355
-0.0181355
-0.0181355
-0.0181355
-0.0181355
-0.0181355
-0.0181355
-0.0181355
-0.0181355
-0.0181355
-0.0181356
-0.0181356
-0.0181356
-0.0181357
-0.0181358
-0.0181359
-0.018136
-0.0181361
-0.0181363
-0.0181364
-0.0181366
-0.0181367
-0.0181368
-0.0181368
-0.0181368
-0.0181368
-0.0181368
-0.0181368
-0.0181371
-0.018138
-0.0181402
-0.0181444
-0.0181512
-0.0181605
-0.0181716
-0.018184
-0.0181964
-0.0182082
-0.018219
-0.0182282
-0.0182356
-0.0182411
-0.0182443
-0.0182453
-0.0182441
-0.0182408
-0.0182358
-0.0182299
-0.0182244
-0.018221
-0.018222
-0.0182298
-0.0181355
-0.0181355
-0.0181355
-0.0181355
-0.0181355
-0.0181355
-0.0181355
-0.0181355
-0.0181355
-0.0181355
-0.0181355
-0.0181355
-0.0181355
-0.0181355
-0.0181355
-0.0181355
-0.0181355
-0.0181355
-0.0181355
-0.0181355
-0.0181355
-0.0181355
-0.0181355
-0.0181355
-0.0181355
-0.0181355
-0.0181355
-0.0181355
-0.0181355
-0.0181355
-0.0181355
-0.0181355
-0.0181355
-0.0181355
-0.0181355
-0.0181355
-0.0181355
-0.0181355
-0.0181356
-0.0181356
-0.0181356
-0.0181357
-0.0181358
-0.0181358
-0.018136
-0.0181361
-0.0181362
-0.0181364
-0.0181365
-0.0181366
-0.0181367
-0.0181368
-0.0181368
-0.0181368
-0.0181368
-0.0181369
-0.0181371
-0.0181376
-0.0181391
-0.0181422
-0.0181477
-0.0181559
-0.0181664
-0.0181782
-0.0181905
-0.0182024
-0.0182132
-0.0182223
-0.0182295
-0.0182344
-0.0182367
-0.0182365
-0.0182337
-0.0182286
-0.0182218
-0.0182146
-0.0182091
-0.0182078
-0.0182142
-0.0182344
-0.0181355
-0.0181355
-0.0181355
-0.0181355
-0.0181355
-0.0181355
-0.0181355
-0.0181355
-0.0181355
-0.0181355
-0.0181355
-0.0181355
-0.0181355
-0.0181355
-0.0181355
-0.0181355
-0.0181355
-0.0181355
-0.0181355
-0.0181355
-0.0181355
-0.0181355
-0.0181355
-0.0181355
-0.0181355
-0.0181355
-0.0181355
-0.0181355
-0.0181355
-0.0181355
-0.0181355
-0.0181355
-0.0181355
-0.0181355
-0.0181355
-0.0181355
-0.0181355
-0.0181355
-0.0181356
-0.0181356
-0.0181356
-0.0181357
-0.0181357
-0.0181358
-0.0181359
-0.018136
-0.0181362
-0.0181363
-0.0181364
-0.0181366
-0.0181367
-0.0181368
-0.0181368
-0.0181369
-0.0181369
-0.018137
-0.0181372
-0.0181375
-0.0181383
-0.0181404
-0.0181444
-0.0181509
-0.01816
-0.018171
-0.0181829
-0.0181947
-0.0182054
-0.0182145
-0.0182214
-0.0182255
-0.0182266
-0.0182245
-0.0182193
-0.0182112
-0.0182013
-0.0181918
-0.018186
-0.0181877
-0.0182029
-0.0182499
-0.0181355
-0.0181355
-0.0181355
-0.0181355
-0.0181355
-0.0181355
-0.0181355
-0.0181355
-0.0181355
-0.0181355
-0.0181355
-0.0181355
-0.0181355
-0.0181355
-0.0181355
-0.0181355
-0.0181355
-0.0181355
-0.0181355
-0.0181355
-0.0181355
-0.0181355
-0.0181355
-0.0181355
-0.0181355
-0.0181355
-0.0181355
-0.0181355
-0.0181355
-0.0181355
-0.0181355
-0.0181355
-0.0181355
-0.0181355
-0.0181355
-0.0181355
-0.0181355
-0.0181355
-0.0181356
-0.0181356
-0.0181356
-0.0181357
-0.0181357
-0.0181358
-0.0181359
-0.018136
-0.0181361
-0.0181363
-0.0181364
-0.0181365
-0.0181367
-0.0181368
-0.0181369
-0.018137
-0.0181371
-0.0181372
-0.0181374
-0.0181377
-0.0181383
-0.0181395
-0.018142
-0.0181466
-0.0181539
-0.0181634
-0.0181744
-0.0181858
-0.0181964
-0.0182054
-0.0182119
-0.0182152
-0.0182145
-0.0182098
-0.0182009
-0.018188
-0.018173
-0.0181593
-0.0181528
-0.0181602
-0.0181901
-0.0183
-0.0181355
-0.0181355
-0.0181355
-0.0181355
-0.0181355
-0.0181355
-0.0181355
-0.0181355
-0.0181355
-0.0181355
-0.0181355
-0.0181355
-0.0181355
-0.0181355
-0.0181355
-0.0181355
-0.0181355
-0.0181355
-0.0181355
-0.0181355
-0.0181355
-0.0181355
-0.0181355
-0.0181355
-0.0181355
-0.0181355
-0.0181355
-0.0181355
-0.0181355
-0.0181355
-0.0181355
-0.0181355
-0.0181355
-0.0181355
-0.0181355
-0.0181355
-0.0181355
-0.0181355
-0.0181355
-0.0181356
-0.0181356
-0.0181356
-0.0181357
-0.0181358
-0.0181359
-0.018136
-0.0181361
-0.0181362
-0.0181364
-0.0181365
-0.0181366
-0.0181368
-0.0181369
-0.0181371
-0.0181373
-0.0181375
-0.0181379
-0.0181383
-0.0181388
-0.0181397
-0.0181412
-0.0181441
-0.0181491
-0.0181563
-0.0181655
-0.0181759
-0.0181863
-0.0181953
-0.0182017
-0.0182042
-0.018201
-0.0181923
-0.0181778
-0.018157
-0.0181322
-0.018109
-0.0180952
-0.0180996
-0.0181448
-0.0184032
-0.0181355
-0.0181355
-0.0181355
-0.0181355
-0.0181355
-0.0181355
-0.0181355
-0.0181355
-0.0181355
-0.0181355
-0.0181355
-0.0181355
-0.0181355
-0.0181355
-0.0181355
-0.0181355
-0.0181355
-0.0181355
-0.0181355
-0.0181355
-0.0181355
-0.0181355
-0.0181355
-0.0181355
-0.0181355
-0.0181355
-0.0181355
-0.0181355
-0.0181355
-0.0181355
-0.0181355
-0.0181355
-0.0181355
-0.0181355
-0.0181355
-0.0181355
-0.0181355
-0.0181355
-0.0181355
-0.0181356
-0.0181356
-0.0181356
-0.0181357
-0.0181358
-0.0181358
-0.018136
-0.0181361
-0.0181362
-0.0181363
-0.0181365
-0.0181366
-0.0181368
-0.018137
-0.0181372
-0.0181374
-0.0181378
-0.0181383
-0.0181389
-0.0181396
-0.0181407
-0.018142
-0.0181441
-0.0181474
-0.0181519
-0.0181576
-0.0181654
-0.0181748
-0.0181839
-0.0181909
-0.0181935
-0.0181897
-0.0181785
-0.0181589
-0.0181287
-0.0180891
-0.0180475
-0.0180115
-0.0179877
-0.0180763
-0.0187774
-0.0181355
-0.0181355
-0.0181355
-0.0181355
-0.0181355
-0.0181355
-0.0181355
-0.0181355
-0.0181355
-0.0181355
-0.0181355
-0.0181355
-0.0181355
-0.0181355
-0.0181355
-0.0181355
-0.0181355
-0.0181355
-0.0181355
-0.0181355
-0.0181355
-0.0181355
-0.0181355
-0.0181355
-0.0181355
-0.0181355
-0.0181355
-0.0181355
-0.0181355
-0.0181355
-0.0181355
-0.0181355
-0.0181355
-0.0181355
-0.0181355
-0.0181355
-0.0181355
-0.0181355
-0.0181355
-0.0181355
-0.0181356
-0.0181356
-0.0181357
-0.0181357
-0.0181358
-0.0181359
-0.018136
-0.0181362
-0.0181363
-0.0181365
-0.0181366
-0.0181368
-0.018137
-0.0181372
-0.0181375
-0.0181379
-0.0181385
-0.0181394
-0.0181406
-0.018142
-0.0181439
-0.0181463
-0.0181496
-0.0181537
-0.018159
-0.0181665
-0.0181755
-0.0181841
-0.0181899
-0.0181903
-0.0181838
-0.0181668
-0.0181351
-0.0180853
-0.0180172
-0.0179379
-0.0178391
-0.0177716
-0.0178719
-0.0188373
-0.0182527
-0.0182613
-0.0182727
-0.0182884
-0.0183096
-0.018337
-0.0183704
-0.0184089
-0.0184521
-0.0185
-0.0185558
-0.0186216
-0.0186984
-0.0187924
-0.0189057
-0.0190364
-0.0191916
-0.0193803
-0.0196083
-0.0198828
-0.020198
-0.0205354
-0.0208784
-0.0212133
-0.0215326
-0.0218296
-0.0220985
-0.0223341
-0.0225327
-0.0226944
-0.0228235
-0.0228914
-0.0228801
-0.0228199
-0.0227082
-0.0225304
-0.0222839
-0.0219632
-0.0215633
-0.0210796
-0.0205072
-0.0198438
-0.0190902
-0.0182473
-0.0173097
-0.0162685
-0.0151233
-0.0138779
-0.0125433
-0.0111163
-0.00959022
-0.0079648
-0.00624186
-0.00443394
-0.00255665
-0.000616806
0.00137849
0.00342095
0.00550139
0.00760985
0.00973587
0.0118686
0.013997
0.0161101
0.0181969
0.0202468
0.0222497
0.0241959
0.0260761
0.0278814
0.0296008
0.0312185
0.0327368
0.0341713
0.0355115
0.0367459
0.0378785
0.0389112
0.0398326
0.0406406
0.0413451
0.0419448
0.0424478
0.0428576
0.0431695
0.0434098
0.0436039
0.0437553
0.0438094
0.0436636
0.043355
0.0430018
0.0426495
0.0422612
0.0418346
0.0413748
0.0408836
0.040363
0.0398166
0.0392476
0.0386596
0.0380557
0.037439
0.0368125
0.0361786
0.0355397
0.0348984
0.0342567
0.0336169
0.0329806
0.0323495
0.031725
0.0311085
0.0305013
0.0299044
0.0293184
0.0287436
0.0281809
0.0276308
0.0270936
0.0265696
0.0260589
0.0255618
0.0250783
0.0246081
0.0241511
0.0237076
0.0232771
0.0228605
0.022456
0.0220613
0.0216786
0.0213098
0.0209541
0.0206112
0.0202802
0.0199607
0.019652
0.019354
0.0190663
0.0187896
0.0185238
0.0182665
0.0180169
0.0177752
0.0175413
0.017315
0.0170964
0.0168851
0.0166811
0.0164851
0.0162957
0.016111
0.0159321
0.0157601
0.0155943
0.0154342
0.0152798
0.0151308
0.0149866
0.0148472
0.0147122
0.0145809
0.0144533
0.0143291
0.0142079
0.0140894
0.0139733
0.0138599
0.0137494
0.0136418
0.0135366
0.0134334
0.0133322
0.013233
0.0131356
0.0130397
0.0129453
0.0128527
0.0127614
0.0126713
0.0125828
0.0124958
0.0124098
0.0123244
0.0122399
0.0121558
0.0120719
0.0119878
0.0119038
0.0118198
0.0117359
0.0116523
0.0115693
0.0114871
0.0114056
0.0113245
0.0112434
0.0111622
0.0110807
0.0109993
0.0109181
0.0108373
0.0107567
0.0106761
0.0105951
0.0105134
0.0104308
0.0103469
0.0102619
0.0101763
0.0100903
0.0100039
0.00991738
0.00983092
0.0097447
0.00965867
0.00957257
0.00948606
0.00939899
0.00931133
0.00922309
0.00913447
0.00904571
0.00895685
0.00886772
0.00877807
0.00868767
0.0085963
0.0085037
0.00840978
0.00831494
0.00821952
0.00812367
0.00802778
0.00793219
0.00783688
0.0077416
0.00764601
0.0075498
0.00745267
0.00735452
0.00725556
0.00715609
0.00705633
0.00695641
0.00685628
0.00675576
0.00665463
0.00655268
0.00644981
0.00634596
0.00624133
0.0061363
0.00603109
0.00592583
0.00582058
0.00571532
0.00561004
0.00550475
0.00539936
0.00529365
0.00518731
0.00508003
0.00497169
0.00486269
0.00475357
0.00464463
0.00453592
0.00442716
0.0043179
0.00420782
0.00409681
0.00398498
0.00387262
0.00376015
0.00364774
0.0035355
0.00342344
0.00331144
0.00319939
0.00308716
0.00297466
0.00286178
0.00274846
0.00263466
0.00252035
0.00240552
0.00229042
0.00217542
0.00206075
0.0019465
0.00183257
0.00171858
0.00160418
0.00148909
0.00137331
0.00125737
0.00114179
0.00102679
0.000912322
0.000798122
0.000683903
0.000569516
0.000454881
0.000339992
0.000224901
0.000109678
-5.61534e-06
-0.00012096
-0.000236345
-0.000351666
-0.000466741
-0.00058145
-0.000695708
-0.000809554
-0.000923194
-0.0010369
-0.00115103
-0.00126573
-0.00138049
-0.00149486
-0.00160851
-0.00172119
-0.00183311
-0.00194474
-0.00205651
-0.00216884
-0.00228165
-0.00239428
-0.00250652
-0.00261827
-0.00272948
-0.0028402
-0.00295045
-0.00306026
-0.00316962
-0.0032785
-0.00338689
-0.00349484
-0.00360258
-0.00371036
-0.00381812
-0.00392554
-0.00403226
-0.00413806
-0.00424287
-0.00434682
-0.00445021
-0.00455347
-0.00465693
-0.00476043
-0.00486343
-0.00496537
-0.00506606
-0.00516572
-0.0052647
-0.00536325
-0.0054614
-0.00555903
-0.00565602
-0.00575228
-0.00584782
-0.0059427
-0.00603702
-0.0061308
-0.00622391
-0.00631615
-0.00640732
-0.00649741
-0.00658657
-0.00667503
-0.00676296
-0.00685046
-0.00693748
-0.00702375
-0.00710892
-0.00719272
-0.00727521
-0.00735667
-0.00743747
-0.00751781
-0.00759761
-0.00767661
-0.00775455
-0.00783135
-0.00790707
-0.00798182
-0.00805568
-0.00812862
-0.00820058
-0.00827146
-0.0083412
-0.00840983
-0.00847744
-0.00854414
-0.00861
-0.00867495
-0.00873887
-0.00880158
-0.00886296
-0.00892302
-0.00898186
-0.00903969
-0.00909664
-0.00915275
-0.0092079
-0.00926184
-0.00931439
-0.00936553
-0.00941537
-0.00946407
-0.00951171
-0.00955826
-0.00960363
-0.00964771
-0.00969049
-0.009732
-0.00977229
-0.00981141
-0.00984934
-0.00988603
-0.0099214
-0.00995538
-0.00998795
-0.0100192
-0.0100491
-0.0100778
-0.0101053
-0.0101316
-0.0101566
-0.01018
-0.010202
-0.0102225
-0.0102415
-0.0102593
-0.0102759
-0.0102911
-0.010305
-0.0103173
-0.0103282
-0.0103376
-0.0103456
-0.0103522
-0.0103574
-0.0103612
-0.0103635
-0.0103648
-0.0103651
-0.0103629
-0.0103582
-0.0103526
-0.0103461
-0.0103381
-0.0103285
-0.0103172
-0.0103044
-0.0102901
-0.0102747
-0.010258
-0.0102398
-0.01022
-0.0101987
-0.0101757
-0.0101509
-0.0101244
-0.0100963
-0.0100667
-0.0100355
-0.0100027
-0.00996825
-0.00993216
-0.00989449
-0.00985531
-0.00981462
-0.00977241
-0.00972861
-0.00968319
-0.00963614
-0.0095875
-0.00953731
-0.00948559
-0.00943232
-0.00937752
-0.00932115
-0.00926293
-0.00920323
-0.00914216
-0.00907893
-0.00901385
-0.00894776
-0.00888016
-0.00881054
-0.00873927
-0.00866666
-0.0085925
-0.00851666
-0.00843926
-0.00836038
-0.00827992
-0.00819782
-0.00811414
-0.00802888
-0.00794191
-0.00785323
-0.00776289
-0.00767088
-0.00757729
-0.00748223
-0.00738568
-0.00728756
-0.00718789
-0.00708665
-0.00698384
-0.00687942
-0.0067733
-0.00666575
-0.00655706
-0.00644709
-0.00633563
-0.00622275
-0.00610848
-0.00599256
-0.00587471
-0.00575504
-0.00563371
-0.00551081
-0.00538637
-0.00526042
-0.00513299
-0.00500409
-0.00487372
-0.0047419
-0.00460867
-0.00447403
-0.00433802
-0.00420063
-0.00406188
-0.00392177
-0.0037803
-0.00363748
-0.00349333
-0.00334787
-0.00320111
-0.00305306
-0.00290372
-0.0027531
-0.00260122
-0.00244809
-0.00229373
-0.00213816
-0.00198138
-0.00182341
-0.00166426
-0.00150396
-0.0013425
-0.00117992
-0.00101622
-0.000851426
-0.000685539
-0.000518645
-0.000350851
-0.000182183
-1.26128e-05
0.00015791
0.000329449
0.000501997
0.000675491
0.000849897
0.0010252
0.00120138
0.00137841
0.00155627
0.00173493
0.00191436
0.00209454
0.00227543
0.00245704
0.00263931
0.00282218
0.00300553
0.00318932
0.00337354
0.00355818
0.0037432
0.00392861
0.00411445
0.00430077
0.00448754
0.00467474
0.00486231
0.00505018
0.00523833
0.0054267
0.00561517
0.00580359
0.00599196
0.00618034
0.00636876
0.00655721
0.00674563
0.00693399
0.00712227
0.00731045
0.00749848
0.00768622
0.0078736
0.00806063
0.0082473
0.00843358
0.00861942
0.0088048
0.00898966
0.00917397
0.00935769
0.00954077
0.00972317
0.00990485
0.0100858
0.0102659
0.0104451
0.0106235
0.0108009
0.0109774
0.0111528
0.0113272
0.0115005
0.0116726
0.0118436
0.0120133
0.0121818
0.0123489
0.0125146
0.012679
0.0128419
0.0130033
0.0131632
0.0133214
0.0134781
0.0136331
0.0137863
0.0139378
0.0140875
0.0142353
0.0143812
0.0145252
0.0146672
0.0148072
0.0149451
0.0150808
0.0152145
0.0153459
0.0154751
0.015602
0.0157266
0.0158488
0.0159686
0.0160859
0.0162008
0.0163132
0.016423
0.0165302
0.0166348
0.0167368
0.0168361
0.0169325
0.0170261
0.0171169
0.0172047
0.0172897
0.0173718
0.0174509
0.0175269
0.0176
0.01767
0.0177371
0.0178012
0.0178621
0.0179199
0.0179746
0.0180261
0.0180745
0.0181199
0.0181622
0.0182013
0.0182373
0.0182702
0.0183
0.0183267
0.0183503
0.018371
0.0183888
0.0184035
0.0184154
0.0184244
0.0184306
0.0184345
0.0184367
0.0184358
0.01843
0.018422
0.0184129
0.0184018
0.0183886
0.0183736
0.0183571
0.0183393
0.01832
0.0182998
0.0182789
0.0182577
0.0182364
0.0182153
0.018195
0.0181758
0.0181582
0.0181428
0.0181301
0.0181207
0.018114
-0.0182494
-0.0182581
-0.0182696
-0.0182839
-0.0183023
-0.0183249
-0.0183515
-0.018382
-0.0184167
-0.0184572
-0.0185047
-0.0185581
-0.0186213
-0.0187062
-0.0188152
-0.0189442
-0.0191032
-0.0193099
-0.0195644
-0.0198516
-0.0201632
-0.0204884
-0.0208152
-0.0211341
-0.0214392
-0.0217256
-0.0219855
-0.0222124
-0.0224019
-0.0225481
-0.0226478
-0.0227149
-0.0227396
-0.0226983
-0.0225936
-0.0224245
-0.0221876
-0.0218772
-0.0214901
-0.0210315
-0.0204926
-0.019855
-0.0191189
-0.0182876
-0.0173664
-0.0163554
-0.0152472
-0.0140418
-0.0127397
-0.0113523
-0.00987639
-0.00830732
-0.00664096
-0.00488365
-0.00305491
-0.0011631
0.000784813
0.00278061
0.00481525
0.00687901
0.00896172
0.0110529
0.0131419
0.0152179
0.0172703
0.0192885
0.0212626
0.0231831
0.0250411
0.0268286
0.0285375
0.0301626
0.0317119
0.0331834
0.0345484
0.0357991
0.0369343
0.0379717
0.0388977
0.0396989
0.040401
0.0409913
0.0414783
0.0418833
0.0421996
0.0424098
0.0425221
0.0425016
0.0423668
0.0422536
0.0421848
0.0420793
0.0418446
0.041523
0.0411456
0.0407238
0.0402644
0.0397733
0.039255
0.0387136
0.0381523
0.0375746
0.0369834
0.0363817
0.0357718
0.0351562
0.0345372
0.0339172
0.033298
0.0326816
0.0320695
0.0314632
0.0308638
0.0302732
0.0296921
0.0291206
0.0285595
0.0280098
0.027472
0.0269465
0.0264334
0.0259332
0.0254456
0.0249711
0.0245095
0.0240608
0.0236249
0.0232016
0.0227905
0.0223916
0.022005
0.0216304
0.0212675
0.0209164
0.0205769
0.0202493
0.019933
0.0196274
0.0193326
0.0190482
0.0187739
0.0185089
0.018253
0.0180057
0.0177663
0.0175348
0.0173109
0.0170944
0.016885
0.0166827
0.0164871
0.016298
0.0161153
0.0159388
0.0157681
0.0156031
0.0154438
0.0152897
0.0151408
0.0149965
0.0148569
0.0147215
0.0145897
0.0144619
0.0143378
0.0142168
0.0140986
0.0139829
0.0138697
0.0137589
0.0136506
0.0135447
0.0134411
0.0133398
0.0132404
0.013143
0.0130472
0.0129527
0.0128599
0.0127681
0.0126773
0.0125881
0.0125006
0.0124145
0.0123294
0.0122451
0.012161
0.012077
0.011993
0.0119091
0.0118252
0.0117413
0.0116576
0.0115744
0.0114919
0.0114099
0.0113283
0.0112469
0.0111655
0.0110839
0.0110024
0.0109209
0.0108397
0.0107588
0.0106778
0.0105965
0.0105147
0.0104321
0.0103484
0.0102638
0.0101785
0.0100925
0.010006
0.00991943
0.00983281
0.00974629
0.00965991
0.00957349
0.00948675
0.00939949
0.00931169
0.00922339
0.00913476
0.00904592
0.00895693
0.00886763
0.00877778
0.00868724
0.00859587
0.00850345
0.00840993
0.00831562
0.00822045
0.00812466
0.00802858
0.0079325
0.00783665
0.00774096
0.00764515
0.00754887
0.00745181
0.00735378
0.00725483
0.00715526
0.0070554
0.0069554
0.00685522
0.00675467
0.00665352
0.0065516
0.0064488
0.00634516
0.00624077
0.00613583
0.00603065
0.00592532
0.00581989
0.00571444
0.00560902
0.00550361
0.00539812
0.00529234
0.005186
0.00507885
0.00497077
0.00486188
0.00475264
0.00464359
0.00453479
0.00442599
0.00431674
0.00420672
0.0040958
0.00398414
0.00387194
0.00375945
0.00364699
0.00353467
0.00342246
0.00331033
0.00319817
0.00308585
0.00297328
0.0028604
0.00274715
0.00263345
0.00251926
0.00240462
0.00228963
0.00217456
0.00205978
0.00194544
0.00183144
0.00171748
0.00160317
0.00148825
0.00137278
0.00125697
0.0011413
0.00102616
0.000911529
0.000797239
0.000683032
0.000568666
0.000454061
0.000339225
0.000224206
0.00010906
-6.16286e-06
-0.000121425
-0.000236697
-0.000351941
-0.000467049
-0.000581849
-0.000696248
-0.000810244
-0.000923954
-0.00103767
-0.00115167
-0.00126604
-0.0013806
-0.00149482
-0.00160842
-0.00172134
-0.00183363
-0.00194548
-0.00205731
-0.00216941
-0.00228186
-0.00239433
-0.0025064
-0.00261802
-0.00272919
-0.00283994
-0.00295024
-0.0030601
-0.00316951
-0.00327844
-0.0033869
-0.00349492
-0.00360264
-0.00371026
-0.00381768
-0.00392475
-0.00403136
-0.00413723
-0.00424226
-0.00434647
-0.00445002
-0.00455323
-0.00465635