/*--------------------------------*- C++ -*----------------------------------*\
| =========                 |                                                 |
| \\      /  F ield         | OpenFOAM: The Open Source CFD Toolbox           |
|  \\    /   O peration     | Version:  2412                                  |
|   \\  /    A nd           | Website:  www.openfoam.com                      |
|    \\/     M anipulation  |                                                 |
\*---------------------------------------------------------------------------*/
FoamFile
{
    version     2.0;
    format      ascii;
    arch        "LSB;label=32;scalar=64";
    class       surfaceScalarField;
    location    "2000";
    object      phi;
}
// * * * * * * * * * * * * * * * * * * * * * * * * * * * * * * * * * * * * * //

dimensions      [0 3 -1 0 0 0 0];

oriented        oriented;

internalField   nonuniform List<scalar> 
299730
(
-1.22215e-14
6.5e-15
-2.58198e-14
-3.80769e-15
-3.34806e-14
-1.29174e-14
-3.47903e-14
-2.00481e-14
-2.31392e-14
-3.29884e-14
-3.77714e-15
-4.05595e-14
2.59068e-14
-5.0786e-14
6.60879e-14
-6.12452e-14
1.2017e-13
-7.51564e-14
1.88021e-13
-8.89721e-14
2.72353e-13
-1.05524e-13
3.78694e-13
-1.27618e-13
5.11953e-13
-1.54622e-13
6.69413e-13
-1.78901e-13
8.41909e-13
-1.94001e-13
1.02555e-12
-2.05196e-13
1.21767e-12
-2.13719e-13
1.43582e-12
-2.39766e-13
1.67032e-12
-2.56152e-13
1.91825e-12
-2.69615e-13
2.17651e-12
-2.79974e-13
2.43965e-12
-2.84917e-13
2.70224e-12
-2.84428e-13
2.9569e-12
-2.76585e-13
3.19195e-12
-2.57068e-13
3.42296e-12
-2.5315e-13
3.61613e-12
-2.15418e-13
3.88191e-12
-2.88166e-13
3.72772e-12
1.31671e-13
4.27822e-12
-5.73142e-13
4.19149e-12
6.39245e-14
3.38154e-12
7.86993e-13
3.25123e-12
1.07149e-13
2.69311e-12
5.34706e-13
2.54989e-12
1.19457e-13
-2.8032e-13
2.80537e-12
-2.43003e-10
2.42693e-10
-8.61209e-10
6.1816e-10
-1.7889e-09
9.27627e-10
-3.03977e-09
1.25081e-09
-4.71481e-09
1.67498e-09
-7.00049e-09
2.28561e-09
-1.01093e-08
3.10871e-09
-1.4286e-08
4.17667e-09
-1.97134e-08
5.42735e-09
-2.65551e-08
6.84169e-09
-3.50339e-08
8.4787e-09
-4.51792e-08
1.01453e-08
-5.68257e-08
1.16464e-08
-6.96233e-08
1.27975e-08
-8.2126e-08
1.25027e-08
-9.00973e-08
7.97122e-09
-9.2042e-08
1.9446e-09
-8.755e-08
-4.49207e-09
-7.17407e-08
-1.58094e-08
-4.14437e-08
-3.02971e-08
1.58375e-09
-4.30275e-08
6.04474e-08
-5.88638e-08
1.32166e-07
-7.17185e-08
2.11632e-07
-7.94663e-08
2.98021e-07
-8.6389e-08
3.86852e-07
-8.88314e-08
4.73368e-07
-8.65161e-08
5.52786e-07
-7.94174e-08
6.22489e-07
-6.9704e-08
6.81227e-07
-5.87378e-08
7.26515e-07
-4.52882e-08
7.55037e-07
-2.85217e-08
7.66699e-07
-1.16622e-08
7.63282e-07
3.41637e-09
7.46595e-07
1.66869e-08
7.19987e-07
2.66078e-08
6.87261e-07
3.27259e-08
6.51618e-07
3.56427e-08
6.16956e-07
3.46622e-08
5.88651e-07
2.83053e-08
5.72785e-07
1.58658e-08
5.75932e-07
-3.14762e-09
6.04013e-07
-2.80813e-08
-5.30386e-08
6.57052e-07
-2.14639e-13
1.82298e-13
-4.07396e-13
1.08207e-13
-3.71014e-13
-1.36178e-13
1.41714e-14
-4.93497e-13
8.3851e-13
-9.45551e-13
2.24263e-12
-1.53275e-12
4.37636e-12
-2.27264e-12
7.42741e-12
-3.2007e-12
1.16286e-11
-4.36517e-12
1.72648e-11
-5.81473e-12
2.46784e-11
-7.60926e-12
3.4279e-11
-9.81907e-12
4.65336e-11
-1.25008e-11
6.19934e-11
-1.5731e-11
8.12315e-11
-1.9525e-11
1.04827e-10
-2.3894e-11
1.33346e-10
-2.88263e-11
1.67328e-10
-3.43165e-11
2.07261e-10
-4.0284e-11
2.53477e-10
-4.65801e-11
3.0606e-10
-5.29593e-11
3.64718e-10
-5.90387e-11
4.28616e-10
-6.42791e-11
4.9623e-10
-6.79871e-11
5.65306e-10
-6.94316e-11
6.33011e-10
-6.80558e-11
6.93902e-10
-6.12062e-11
7.43405e-10
-4.98905e-11
7.55869e-10
-1.24338e-11
7.24688e-10
3.05069e-11
6.28357e-10
9.62924e-11
4.33642e-10
1.95399e-10
1.05928e-10
3.27717e-10
-4.22526e-10
5.28883e-10
-1.24401e-09
8.21491e-10
-2.5068e-09
1.26549e-09
-4.259e-09
1.99477e-09
-6.66069e-09
3.01972e-09
-9.99311e-09
4.25991e-09
-1.44851e-08
5.74264e-09
-2.04364e-08
7.62619e-09
-2.81684e-08
1.00175e-08
-3.80279e-08
1.29681e-08
-5.0325e-08
1.64736e-08
-6.52219e-08
2.03241e-08
-8.27063e-08
2.4326e-08
-1.02263e-07
2.8035e-08
-1.22924e-07
3.08061e-08
-1.43094e-07
3.18168e-08
-1.60163e-07
2.98663e-08
-1.70675e-07
2.30142e-08
-1.70812e-07
8.10814e-09
-1.57185e-07
-1.16828e-08
-1.27781e-07
-3.38962e-08
-8.26301e-08
-6.09604e-08
-2.13086e-08
-9.16188e-08
5.78719e-08
-1.22208e-07
1.51138e-07
-1.5213e-07
2.57951e-07
-1.78532e-07
3.77513e-07
-1.99029e-07
5.03661e-07
-2.12536e-07
6.32298e-07
-2.17469e-07
7.59205e-07
-2.13424e-07
8.80516e-07
-2.00728e-07
9.93207e-07
-1.82395e-07
1.09397e-06
-1.59501e-07
1.17888e-06
-1.30199e-07
1.2474e-06
-9.70401e-08
1.29946e-06
-6.37204e-08
1.33425e-06
-3.13812e-08
1.3524e-06
-1.46087e-09
1.35524e-06
2.37698e-08
1.34378e-06
4.41884e-08
1.31931e-06
6.01109e-08
1.28556e-06
6.84139e-08
1.2484e-06
6.54649e-08
1.21412e-06
5.01401e-08
1.18701e-06
2.39652e-08
1.1689e-06
-9.96794e-09
-3.96826e-08
1.15554e-06
-1.18953e-13
2.52493e-13
-5.79888e-14
-4.69198e-14
4.32438e-13
-7.26087e-13
1.52766e-12
-1.68943e-12
3.44018e-12
-2.95873e-12
6.38763e-12
-4.58071e-12
1.0648e-11
-6.63359e-12
1.65648e-11
-9.21846e-12
2.45483e-11
-1.24501e-11
3.50906e-11
-1.64592e-11
4.877e-11
-2.13917e-11
6.62555e-11
-2.74085e-11
8.83227e-11
-3.46728e-11
1.15794e-10
-4.33074e-11
1.49556e-10
-5.33932e-11
1.90489e-10
-6.49342e-11
2.39443e-10
-7.78885e-11
2.97159e-10
-9.21403e-11
3.64174e-10
-1.07407e-10
4.40666e-10
-1.23181e-10
5.26264e-10
-1.38667e-10
6.19807e-10
-1.52693e-10
7.19049e-10
-1.63632e-10
8.20278e-10
-1.69328e-10
9.17872e-10
-1.67139e-10
1.00547e-09
-1.5577e-10
1.06893e-09
-1.24776e-10
1.08783e-09
-6.89055e-11
1.04031e-09
3.49652e-11
8.92539e-10
1.78163e-10
6.10367e-10
3.78347e-10
1.36383e-10
6.69264e-10
-6.13873e-10
1.07785e-09
-1.73806e-09
1.65294e-09
-3.37121e-09
2.45452e-09
-5.67914e-09
3.57328e-09
-8.8203e-09
5.1358e-09
-1.30137e-08
7.21296e-09
-1.85581e-08
9.80424e-09
-2.58189e-08
1.30033e-08
-3.51523e-08
1.69594e-08
-4.68741e-08
2.17392e-08
-6.12158e-08
2.73097e-08
-7.81885e-08
3.34462e-08
-9.76245e-08
3.976e-08
-1.18796e-07
4.54969e-08
-1.40369e-07
4.96086e-08
-1.60336e-07
5.07722e-08
-1.76152e-07
4.76333e-08
-1.84689e-07
3.84029e-08
-1.82975e-07
2.12995e-08
-1.70608e-07
-4.25865e-09
-1.45802e-07
-3.64892e-08
-1.06011e-07
-7.36868e-08
-5.08397e-08
-1.16132e-07
1.96801e-08
-1.62139e-07
1.06052e-07
-2.08581e-07
2.06696e-07
-2.52774e-07
3.19976e-07
-2.91812e-07
4.43389e-07
-3.22443e-07
5.7264e-07
-3.41787e-07
7.03432e-07
-3.48261e-07
8.31959e-07
-3.41951e-07
9.5517e-07
-3.2394e-07
1.06907e-06
-2.96292e-07
1.17073e-06
-2.61166e-07
1.25995e-06
-2.1942e-07
1.33612e-06
-1.73206e-07
1.39791e-06
-1.25516e-07
1.44488e-06
-7.8351e-08
1.47762e-06
-3.41918e-08
1.49535e-06
6.02986e-09
1.49736e-06
4.21859e-08
1.48599e-06
7.14821e-08
1.46271e-06
9.16923e-08
1.42724e-06
1.00936e-07
1.37932e-06
9.80578e-08
1.3188e-06
8.4484e-08
1.24415e-06
6.46853e-08
4.90666e-08
1.1554e-06
5.34111e-14
1.46797e-13
4.81308e-13
-5.7395e-13
1.49197e-12
-1.84093e-12
3.31321e-12
-3.61589e-12
6.19343e-12
-5.94396e-12
1.0435e-11
-8.92697e-12
1.64039e-11
-1.27071e-11
2.4541e-11
-1.74605e-11
3.53743e-11
-2.33887e-11
4.95258e-11
-3.07166e-11
6.77145e-11
-3.96872e-11
9.07521e-11
-5.05538e-11
1.19532e-10
-6.35609e-11
1.55018e-10
-7.89032e-11
1.98215e-10
-9.67004e-11
2.5012e-10
-1.1695e-10
3.11628e-10
-1.39508e-10
3.8342e-10
-1.64045e-10
4.65823e-10
-1.89923e-10
5.58603e-10
-2.16075e-10
6.60694e-10
-2.40873e-10
7.69858e-10
-2.61971e-10
8.82243e-10
-2.76133e-10
9.91797e-10
-2.78999e-10
1.08901e-09
-2.64472e-10
1.16181e-09
-2.28684e-10
1.19224e-09
-1.55326e-10
1.14704e-09
-2.38213e-11
1.00649e-09
1.75388e-10
7.2228e-10
4.62254e-10
2.32102e-10
8.68402e-10
-5.37326e-10
1.43857e-09
-1.68692e-09
2.22732e-09
-3.34107e-09
3.30696e-09
-5.65691e-09
4.77024e-09
-8.81855e-09
6.73479e-09
-1.30209e-08
9.33797e-09
-1.85013e-08
1.26933e-08
-2.55744e-08
1.68772e-08
-3.45685e-08
2.19972e-08
-4.57515e-08
2.81424e-08
-5.92833e-08
3.52708e-08
-7.51251e-08
4.31513e-08
-9.29412e-08
5.12621e-08
-1.12011e-07
5.88301e-08
-1.31134e-07
6.46189e-08
-1.48603e-07
6.70775e-08
-1.62394e-07
6.45638e-08
-1.70524e-07
5.57624e-08
-1.71069e-07
3.89485e-08
-1.62815e-07
1.30448e-08
-1.45406e-07
-2.16671e-08
-1.17361e-07
-6.45351e-08
-7.63912e-08
-1.14656e-07
-2.12616e-08
-1.71262e-07
4.88453e-08
-2.32246e-07
1.34361e-07
-2.94097e-07
2.34409e-07
-3.52821e-07
3.46649e-07
-4.04052e-07
4.67606e-07
-4.43401e-07
5.93145e-07
-4.67326e-07
7.19024e-07
-4.7414e-07
8.41272e-07
-4.64199e-07
9.56589e-07
-4.39257e-07
1.06212e-06
-4.01819e-07
1.15569e-06
-3.5474e-07
1.23671e-06
-3.00442e-07
1.30499e-06
-2.4149e-07
1.36004e-06
-1.80564e-07
1.40162e-06
-1.19926e-07
1.42909e-06
-6.16619e-08
1.44234e-06
-7.22713e-09
1.44173e-06
4.27986e-08
1.42688e-06
8.63324e-08
1.39736e-06
1.21213e-07
1.35213e-06
1.46164e-07
1.28956e-06
1.60627e-07
1.2085e-06
1.65542e-07
1.10772e-06
1.65473e-07
1.72113e-07
9.84669e-07
2.191e-13
-1.25604e-13
9.81946e-13
-1.43763e-12
2.43789e-12
-3.40269e-12
4.81161e-12
-6.09628e-12
8.3783e-12
-9.61685e-12
1.34755e-11
-1.41298e-11
2.05124e-11
-1.98492e-11
2.99781e-11
-2.70315e-11
4.24513e-11
-3.59674e-11
5.86046e-11
-4.6976e-11
7.92057e-11
-6.0395e-11
1.05109e-10
-7.65642e-11
1.37238e-10
-9.57987e-11
1.7657e-10
-1.18344e-10
2.24089e-10
-1.4433e-10
2.80732e-10
-1.73704e-10
3.47283e-10
-2.06171e-10
4.24226e-10
-2.411e-10
5.11558e-10
-2.77367e-10
6.08542e-10
-3.13172e-10
7.13372e-10
-3.45817e-10
8.22745e-10
-3.71458e-10
9.31313e-10
-3.84817e-10
1.03104e-09
-3.78837e-10
1.11031e-09
-3.43862e-10
1.15084e-09
-2.69333e-10
1.13102e-09
-1.35626e-10
1.02229e-09
8.47906e-11
7.85772e-10
4.11782e-10
3.67614e-10
8.80291e-10
-3.01659e-10
1.53755e-09
-1.30724e-09
2.44402e-09
-2.75719e-09
3.67715e-09
-4.78399e-09
5.33364e-09
-7.54603e-09
7.53215e-09
-1.12241e-08
1.04127e-08
-1.60139e-08
1.41276e-08
-2.2134e-08
1.88132e-08
-2.98297e-08
2.45728e-08
-3.93134e-08
3.14808e-08
-5.06923e-08
3.95211e-08
-6.391e-08
4.84883e-08
-7.86597e-08
5.79009e-08
-9.43479e-08
6.69502e-08
-1.09995e-07
7.4477e-08
-1.24367e-07
7.89912e-08
-1.36054e-07
7.87645e-08
-1.43764e-07
7.22736e-08
-1.4623e-07
5.82275e-08
-1.42663e-07
3.53815e-08
-1.32676e-07
3.05792e-09
-1.15356e-07
-3.89871e-08
-8.91059e-08
-9.07856e-08
-5.17405e-08
-1.52022e-07
-1.3537e-09
-2.21649e-07
6.35108e-08
-2.9711e-07
1.43592e-07
-3.74178e-07
2.38246e-07
-4.47476e-07
3.451e-07
-5.10905e-07
4.60367e-07
-5.58668e-07
5.79549e-07
-5.86508e-07
6.9806e-07
-5.92651e-07
8.11733e-07
-5.77873e-07
9.17271e-07
-5.44795e-07
1.01238e-06
-4.96925e-07
1.09559e-06
-4.37954e-07
1.16635e-06
-3.71202e-07
1.22451e-06
-2.99645e-07
1.26989e-06
-2.25951e-07
1.30227e-06
-1.52305e-07
1.32115e-06
-8.05452e-08
1.32603e-06
-1.21057e-08
1.31676e-06
5.20694e-08
1.29261e-06
1.10482e-07
1.25247e-06
1.61355e-07
1.19531e-06
2.03329e-07
1.11955e-06
2.36386e-07
1.02216e-06
2.62931e-07
8.97174e-07
2.90456e-07
3.31322e-07
7.37965e-07
3.4533e-13
-5.2482e-13
1.31466e-12
-2.50895e-12
3.02231e-12
-5.21724e-12
5.66906e-12
-8.85054e-12
9.52269e-12
-1.35772e-11
1.49195e-11
-1.96324e-11
2.22682e-11
-2.73031e-11
3.20551e-11
-3.69232e-11
4.48497e-11
-4.88668e-11
6.13074e-11
-6.35389e-11
8.21673e-11
-8.13607e-11
1.08242e-10
-1.02746e-10
1.404e-10
-1.28064e-10
1.79537e-10
-1.57589e-10
2.26528e-10
-1.9143e-10
2.82162e-10
-2.29447e-10
3.47027e-10
-2.71146e-10
4.21354e-10
-3.15538e-10
5.04807e-10
-3.60932e-10
5.96213e-10
-4.0469e-10
6.93186e-10
-4.42903e-10
7.91651e-10
-4.70037e-10
8.85284e-10
-4.78564e-10
9.64862e-10
-4.58531e-10
1.01738e-09
-3.96497e-10
1.02336e-09
-2.75432e-10
9.57038e-10
-6.94192e-11
7.9026e-10
2.51449e-10
4.78764e-10
7.23157e-10
-3.3404e-11
1.39234e-09
-8.15592e-10
2.31962e-09
-1.95488e-09
3.58318e-09
-3.55606e-09
5.2782e-09
-5.74347e-09
7.52093e-09
-8.65961e-09
1.04482e-08
-1.246e-08
1.4213e-08
-1.73051e-08
1.89725e-08
-2.33539e-08
2.48619e-08
-3.07481e-08
3.19669e-08
-3.95599e-08
4.02924e-08
-4.97322e-08
4.96934e-08
-6.10286e-08
5.97846e-08
-7.29903e-08
6.98624e-08
-8.49223e-08
7.8882e-08
-9.59579e-08
8.55125e-08
-1.05166e-07
8.81996e-08
-1.11653e-07
8.52507e-08
-1.14804e-07
7.54245e-08
-1.14137e-07
5.75604e-08
-1.09443e-07
3.0687e-08
-1.00367e-07
-6.01833e-09
-8.59535e-08
-5.34003e-08
-6.45208e-08
-1.12218e-07
-3.38115e-08
-1.82732e-07
8.52799e-09
-2.63988e-07
6.45072e-08
-3.5309e-07
1.35342e-07
-4.45013e-07
2.2075e-07
-5.32884e-07
3.1853e-07
-6.08686e-07
4.24763e-07
-6.64901e-07
5.34591e-07
-6.96337e-07
6.4312e-07
-7.01179e-07
7.4613e-07
-6.80883e-07
8.40545e-07
-6.3921e-07
9.24456e-07
-5.80836e-07
9.96851e-07
-5.10349e-07
1.05736e-06
-4.3171e-07
1.10588e-06
-3.48164e-07
1.14227e-06
-2.62342e-07
1.16621e-06
-1.76243e-07
1.17712e-06
-9.14577e-08
1.17424e-06
-9.22841e-09
1.15686e-06
6.94496e-08
1.12403e-06
1.4331e-07
1.0744e-06
2.10992e-07
1.00591e-06
2.71818e-07
9.15056e-07
3.27236e-07
7.95917e-07
3.8207e-07
6.4109e-07
4.45284e-07
5.28265e-07
4.44147e-07
3.7407e-13
-9.53475e-13
1.3942e-12
-3.63243e-12
3.11623e-12
-7.04744e-12
5.7043e-12
-1.15471e-11
9.39685e-12
-1.73771e-11
1.44978e-11
-2.48393e-11
2.1377e-11
-3.42873e-11
3.04727e-11
-4.61232e-11
4.22943e-11
-6.07925e-11
5.74233e-11
-7.87721e-11
7.65091e-11
-1.00551e-10
1.00258e-10
-1.266e-10
1.29416e-10
-1.57328e-10
1.64733e-10
-1.93013e-10
2.06921e-10
-2.33726e-10
2.56577e-10
-2.79211e-10
3.14075e-10
-3.28754e-10
3.79415e-10
-3.80987e-10
4.52016e-10
-4.33644e-10
5.3045e-10
-4.83235e-10
6.12066e-10
-5.2463e-10
6.92513e-10
-5.50597e-10
7.65211e-10
-5.51375e-10
8.20746e-10
-5.1418e-10
8.45699e-10
-4.21566e-10
8.20907e-10
-2.50756e-10
7.22275e-10
2.90961e-11
5.19656e-10
4.5395e-10
1.71572e-10
1.07112e-09
-3.74388e-10
1.93818e-09
-1.18325e-09
3.12836e-09
-2.33251e-09
4.73231e-09
-3.91356e-09
6.85913e-09
-6.03002e-09
9.63726e-09
-8.79404e-09
1.3212e-08
-1.23191e-08
1.77379e-08
-1.67089e-08
2.33622e-08
-2.2044e-08
3.01969e-08
-2.83585e-08
3.82812e-08
-3.55999e-08
4.75337e-08
-4.35903e-08
5.76836e-08
-5.2003e-08
6.81971e-08
-6.0368e-08
7.82272e-08
-6.80715e-08
8.65854e-08
-7.43705e-08
9.18113e-08
-7.89678e-08
9.27967e-08
-8.14591e-08
8.77418e-08
-8.16328e-08
7.55979e-08
-7.95294e-08
5.54568e-08
-7.52449e-08
2.64024e-08
-6.85817e-08
-1.26818e-08
-5.8729e-08
-6.32532e-08
-4.4081e-08
-1.26867e-07
-2.23174e-08
-2.04495e-07
9.25504e-09
-2.95561e-07
5.31698e-08
-3.97005e-07
1.11276e-07
-5.0312e-07
1.83872e-07
-6.0548e-07
2.69101e-07
-6.93915e-07
3.63025e-07
-7.58825e-07
4.60564e-07
-7.93875e-07
5.56652e-07
-7.97268e-07
6.4716e-07
-7.71392e-07
7.29324e-07
-7.21374e-07
8.0161e-07
-6.53121e-07
8.63325e-07
-5.72065e-07
9.14247e-07
-4.82632e-07
9.5427e-07
-3.88187e-07
9.83147e-07
-2.91218e-07
1.00038e-06
-1.93475e-07
1.00516e-06
-9.62433e-08
9.96393e-07
-4.57207e-10
9.72873e-07
9.29693e-08
9.32978e-07
1.83204e-07
8.74351e-07
2.6962e-07
7.93349e-07
3.5282e-07
6.84664e-07
4.35922e-07
5.41617e-07
5.25116e-07
3.57749e-07
6.29152e-07
7.57749e-07
1.28264e-07
3.30152e-13
-1.33912e-12
1.22132e-12
-4.62857e-12
2.7038e-12
-8.63957e-12
4.89818e-12
-1.38512e-11
7.99369e-12
-2.05807e-11
1.22356e-11
-2.91876e-11
1.79228e-11
-4.00795e-11
2.54086e-11
-5.3713e-11
3.51012e-11
-7.05887e-11
4.74636e-11
-9.1238e-11
6.30089e-11
-1.162e-10
8.22905e-11
-1.45986e-10
1.05883e-10
-1.81026e-10
1.34356e-10
-2.21592e-10
1.68227e-10
-2.67703e-10
2.07895e-10
-3.18986e-10
2.53544e-10
-3.74511e-10
3.05008e-10
-4.32561e-10
3.61597e-10
-4.90342e-10
4.21857e-10
-5.43605e-10
4.83229e-10
-5.86113e-10
5.41556e-10
-6.09036e-10
5.91193e-10
-6.01124e-10
6.23345e-10
-5.46445e-10
6.25463e-10
-4.23798e-10
5.80778e-10
-2.06186e-10
4.68542e-10
1.41216e-10
2.60756e-10
6.61618e-10
-7.76899e-11
1.40945e-09
-5.911e-10
2.45147e-09
-1.33288e-09
3.87002e-09
-2.36502e-09
5.76434e-09
-3.75716e-09
8.25114e-09
-5.58338e-09
1.14634e-08
-7.91661e-09
1.55452e-08
-1.08198e-08
2.0641e-08
-1.43336e-08
2.68759e-08
-1.8461e-08
3.43241e-08
-2.31469e-08
4.29669e-08
-2.82535e-08
5.26402e-08
-3.35416e-08
6.29715e-08
-3.86679e-08
7.33233e-08
-4.32233e-08
8.27824e-08
-4.68423e-08
9.02042e-08
-4.91099e-08
9.40788e-08
-4.99442e-08
9.36309e-08
-4.93594e-08
8.71568e-08
-4.75411e-08
7.37795e-08
-4.48887e-08
5.28043e-08
-4.17644e-08
2.3278e-08
-3.82693e-08
-1.61771e-08
-3.39069e-08
-6.76158e-08
-2.7328e-08
-1.33446e-07
-1.62397e-08
-2.15584e-07
2.32467e-09
-3.14126e-07
3.13964e-08
-4.26077e-07
7.35621e-08
-5.45286e-07
1.29934e-07
-6.61851e-07
1.99244e-07
-7.63226e-07
2.7779e-07
-8.37371e-07
3.60473e-07
-8.76558e-07
4.42197e-07
-8.78992e-07
5.18997e-07
-8.48193e-07
5.8839e-07
-7.90767e-07
6.4913e-07
-7.13861e-07
7.00727e-07
-6.23663e-07
7.43017e-07
-5.24922e-07
7.75826e-07
-4.20995e-07
7.98737e-07
-3.1413e-07
8.11001e-07
-2.0574e-07
8.11474e-07
-9.67156e-08
7.98638e-07
1.2378e-08
7.70541e-07
1.21067e-07
7.24621e-07
2.29124e-07
6.57253e-07
3.36988e-07
5.63508e-07
4.46565e-07
4.37457e-07
5.61973e-07
2.7313e-07
6.89442e-07
6.56783e-08
8.36604e-07
1.0116e-06
-1.88168e-07
2.23904e-13
-1.61948e-12
8.32638e-13
-5.34396e-12
1.85376e-12
-9.77187e-12
3.36548e-12
-1.54738e-11
5.49527e-12
-2.28195e-11
8.4101e-12
-3.22094e-11
1.23138e-11
-4.40884e-11
1.74466e-11
-5.89496e-11
2.40852e-11
-7.73304e-11
3.25419e-11
-9.97975e-11
4.31607e-11
-1.26922e-10
5.63096e-11
-1.59239e-10
7.23664e-11
-1.97186e-10
9.16963e-11
-2.41027e-10
1.14617e-10
-2.90729e-10
1.41346e-10
-3.45822e-10
1.71924e-10
-4.05196e-10
2.06108e-10
-4.66853e-10
2.43239e-10
-5.27582e-10
2.82082e-10
-5.82557e-10
3.20539e-10
-6.24681e-10
3.55679e-10
-6.44287e-10
3.82841e-10
-6.28398e-10
3.94622e-10
-5.58339e-10
3.81163e-10
-4.10453e-10
3.29803e-10
-1.54941e-10
2.24283e-10
2.4662e-10
4.33398e-11
8.42444e-10
-2.39468e-10
1.69214e-09
-6.56424e-10
2.8683e-09
-1.24501e-09
4.45848e-09
-2.04669e-09
6.5659e-09
-3.10451e-09
9.30884e-09
-4.45877e-09
1.28175e-08
-6.14046e-09
1.72267e-08
-8.16223e-09
2.26627e-08
-1.05069e-08
2.92205e-08
-1.31148e-08
3.69319e-08
-1.58707e-08
4.57227e-08
-1.85943e-08
5.53637e-08
-2.10425e-08
6.54196e-08
-2.29338e-08
7.52146e-08
-2.39875e-08
8.38359e-08
-2.3952e-08
9.01686e-08
-2.28195e-08
9.29462e-08
-2.05644e-08
9.13757e-08
-1.75811e-08
8.41734e-08
-1.44054e-08
7.06037e-08
-1.16308e-08
5.00295e-08
-9.91195e-09
2.15589e-08
-9.75856e-09
-1.63306e-08
-1.11405e-08
-6.6234e-08
-1.32047e-08
-1.31382e-07
-1.38557e-08
-2.14933e-07
-9.97204e-09
-3.18009e-07
1.98186e-09
-4.38031e-07
2.53117e-08
-5.68615e-07
6.21414e-08
-6.98681e-07
1.12204e-07
-8.13288e-07
1.72464e-07
-8.97631e-07
2.37982e-07
-9.42076e-07
3.03923e-07
-9.44934e-07
3.66401e-07
-9.1067e-07
4.23045e-07
-8.47412e-07
4.72723e-07
-7.6354e-07
5.15003e-07
-6.65943e-07
5.49691e-07
-5.59609e-07
5.76496e-07
-4.47801e-07
5.94819e-07
-3.32453e-07
6.03631e-07
-2.14551e-07
6.01389e-07
-9.44732e-08
5.85979e-07
2.7787e-08
5.54737e-07
1.5231e-07
5.04038e-07
2.79823e-07
4.29194e-07
4.11832e-07
3.24664e-07
5.51094e-07
1.84751e-07
7.01886e-07
4.58439e-09
8.69608e-07
-2.19043e-07
1.06023e-06
1.27989e-06
-4.87335e-07
7.32232e-14
-1.75012e-12
2.95467e-13
-5.67444e-12
7.00429e-13
-1.02894e-11
1.32646e-12
-1.62118e-11
2.23305e-12
-2.38358e-11
3.49694e-12
-3.35805e-11
5.21118e-12
-4.59077e-11
7.48508e-12
-6.13271e-11
1.04442e-11
-8.03921e-11
1.423e-11
-1.03685e-10
1.89972e-11
-1.31791e-10
2.49103e-11
-1.65254e-10
3.2135e-11
-2.04514e-10
4.08266e-11
-2.49822e-10
5.11094e-11
-3.01116e-10
6.30465e-11
-3.57864e-10
7.65943e-11
-4.1885e-10
9.15334e-11
-4.81899e-10
1.0735e-10
-5.43507e-10
1.23143e-10
-5.98458e-10
1.38048e-10
-6.39694e-10
1.50628e-10
-6.56977e-10
1.56592e-10
-6.34473e-10
1.51493e-10
-5.53352e-10
1.30087e-10
-3.89159e-10
8.44598e-11
-1.09427e-10
4.70093e-12
3.26264e-10
-1.21888e-10
9.68917e-10
-3.10503e-10
1.88064e-09
-5.78847e-10
3.13653e-09
-9.45975e-10
4.82549e-09
-1.43033e-09
7.05013e-09
-2.04672e-09
9.92511e-09
-2.80146e-09
1.35721e-08
-3.68597e-09
1.81111e-08
-4.66876e-09
2.36453e-08
-5.68671e-09
3.02383e-08
-6.63709e-09
3.78821e-08
-7.37298e-09
4.64585e-08
-7.70589e-09
5.56965e-08
-7.42087e-09
6.51344e-08
-6.30869e-09
7.41022e-08
-4.20799e-09
8.17351e-08
-1.07565e-09
8.70361e-08
2.85623e-09
8.90141e-08
7.48584e-09
8.67459e-08
1.22902e-08
7.93689e-08
1.65043e-08
6.63894e-08
1.93007e-08
4.72329e-08
1.97406e-08
2.11189e-08
1.69729e-08
-1.3563e-08
1.0274e-08
-5.95353e-08
-1.55063e-10
-1.20953e-07
-1.27482e-08
-2.0234e-07
-2.44657e-08
-3.06292e-07
-3.1361e-08
-4.31136e-07
-2.93907e-08
-5.70586e-07
-1.53224e-08
-7.12749e-07
1.20959e-08
-8.40707e-07
5.12579e-08
-9.36793e-07
9.73565e-08
-9.88175e-07
1.46257e-07
-9.93834e-07
1.94097e-07
-9.5851e-07
2.3825e-07
-8.91565e-07
2.77447e-07
-8.02737e-07
3.11178e-07
-6.99674e-07
3.39152e-07
-5.87584e-07
3.60955e-07
-4.69604e-07
3.75816e-07
-3.47314e-07
3.82447e-07
-2.21183e-07
3.78897e-07
-9.09229e-08
3.62563e-07
4.4121e-08
3.29858e-07
1.85015e-07
2.76595e-07
3.33085e-07
1.97206e-07
4.91221e-07
8.5977e-08
6.62323e-07
-6.233e-08
8.50193e-07
-2.51482e-07
1.05876e-06
-4.83092e-07
1.29184e-06
1.55294e-06
-7.56145e-07
-9.94643e-14
-1.70888e-12
-3.1561e-13
-5.56789e-12
-5.97694e-13
-1.01211e-11
-9.47779e-13
-1.59746e-11
-1.37812e-12
-2.35158e-11
-1.90843e-12
-3.31577e-11
-2.56382e-12
-4.53574e-11
-3.37407e-12
-6.06201e-11
-4.37328e-12
-7.9495e-11
-5.59982e-12
-1.0256e-10
-7.09616e-12
-1.30396e-10
-8.90881e-12
-1.63543e-10
-1.10881e-11
-2.02437e-10
-1.36883e-11
-2.47325e-10
-1.67685e-11
-2.9814e-10
-2.03947e-11
-3.54343e-10
-2.46444e-11
-4.14706e-10
-2.96125e-11
-4.77037e-10
-3.53979e-11
-5.37828e-10
-4.21552e-11
-5.91809e-10
-5.06644e-11
-6.31294e-10
-6.18778e-11
-6.45872e-10
-7.57106e-11
-6.2075e-10
-9.32003e-11
-5.35973e-10
-1.1615e-10
-3.66321e-10
-1.46673e-10
-7.9017e-11
-1.87102e-10
3.66578e-10
-2.40173e-10
1.02187e-09
-3.08592e-10
1.94894e-09
-3.94294e-10
3.22211e-09
-4.97031e-10
4.92811e-09
-6.11678e-10
7.16466e-09
-7.25968e-10
1.00393e-08
-8.14954e-10
1.3661e-08
-8.36044e-10
1.81321e-08
-7.22989e-10
2.35321e-08
-3.8054e-10
2.98957e-08
3.17944e-10
3.71835e-08
1.52779e-09
4.52485e-08
3.42252e-09
5.38017e-08
6.1692e-09
6.23876e-08
9.8931e-09
7.03782e-08
1.46309e-08
7.69971e-08
2.02816e-08
8.13853e-08
2.65856e-08
8.27099e-08
3.31509e-08
8.01805e-08
3.93397e-08
7.318e-08
4.43737e-08
6.13553e-08
4.72827e-08
4.43236e-08
4.69423e-08
2.14591e-08
4.19501e-08
-8.57097e-09
3.10188e-08
-4.86042e-08
1.34826e-08
-1.03417e-07
-1.00443e-08
-1.78813e-07
-3.71119e-08
-2.79225e-07
-6.3646e-08
-4.04602e-07
-8.49972e-08
-5.49235e-07
-9.67708e-08
-7.00976e-07
-9.57891e-08
-8.41689e-07
-8.13608e-08
-9.51221e-07
-5.66746e-08
-1.01286e-06
-2.61595e-08
-1.02435e-06
6.68897e-09
-9.91359e-07
3.83882e-08
-9.23264e-07
6.7421e-08
-8.3177e-07
9.30861e-08
-7.25339e-07
1.14933e-07
-6.09431e-07
1.32429e-07
-4.871e-07
1.44694e-07
-3.59578e-07
1.5028e-07
-2.26769e-07
1.46893e-07
-8.75365e-08
1.31492e-07
5.95224e-08
1.00168e-07
2.16338e-07
4.76749e-08
3.85578e-07
-3.16622e-08
5.70558e-07
-1.43874e-07
7.74534e-07
-2.93898e-07
1.00022e-06
-4.84694e-07
1.24956e-06
-7.16494e-07
1.52364e-06
1.82237e-06
-9.85926e-07
-2.67779e-13
-1.50002e-12
-9.11714e-13
-5.03458e-12
-1.86507e-12
-9.28233e-12
-3.16853e-12
-1.47847e-11
-4.90523e-12
-2.18897e-11
-7.18955e-12
-3.09809e-11
-1.01628e-11
-4.2489e-11
-1.39919e-11
-5.68939e-11
-1.88683e-11
-7.472e-11
-2.50077e-11
-9.65215e-11
-3.26478e-11
-1.22857e-10
-4.20434e-11
-1.54248e-10
-5.34586e-11
-1.91123e-10
-6.71548e-11
-2.3373e-10
-8.33724e-11
-2.82025e-10
-1.02306e-10
-3.35513e-10
-1.2407e-10
-3.93046e-10
-1.48658e-10
-4.52554e-10
-1.75896e-10
-5.10696e-10
-2.05403e-10
-5.62408e-10
-2.36504e-10
-6.00301e-10
-2.68634e-10
-6.1385e-10
-3.00098e-10
-5.89395e-10
-3.28155e-10
-5.08026e-10
-3.49599e-10
-3.44989e-10
-3.60605e-10
-6.81225e-11
-3.55756e-10
3.61615e-10
-3.27498e-10
9.935e-10
-2.65693e-10
1.88702e-09
-1.56496e-10
3.1128e-09
1.94582e-11
4.75203e-09
2.87918e-10
6.89608e-09
6.87054e-10
9.64002e-09
1.26826e-09
1.30796e-08
2.10103e-09
1.72992e-08
3.27637e-09
2.23567e-08
4.90834e-09
2.82636e-08
7.132e-09
3.49597e-08
1.00952e-08
4.22852e-08
1.39416e-08
4.99552e-08
1.87846e-08
5.75444e-08
2.46727e-08
6.44899e-08
3.15501e-08
7.01196e-08
3.92245e-08
7.37108e-08
4.7359e-08
7.45753e-08
5.54444e-08
7.20948e-08
6.27982e-08
6.5826e-08
6.86101e-08
5.55432e-08
7.18705e-08
4.10631e-08
7.12885e-08
2.20409e-08
6.52554e-08
-2.53801e-09
5.18508e-08
-3.51998e-08
2.93012e-08
-8.08673e-08
-2.88066e-09
-1.46632e-07
-4.34738e-08
-2.38632e-07
-8.89884e-08
-3.59087e-07
-1.34588e-07
-5.03635e-07
-1.74564e-07
-6.61e-07
-2.03588e-07
-8.12665e-07
-2.1849e-07
-9.36319e-07
-2.18598e-07
-1.01275e-06
-2.07683e-07
-1.03526e-06
-1.91382e-07
-1.00766e-06
-1.72809e-07
-9.41837e-07
-1.54097e-07
-8.50481e-07
-1.36444e-07
-7.42992e-07
-1.20544e-07
-6.25331e-07
-1.07016e-07
-5.00628e-07
-9.6765e-08
-3.69829e-07
-9.12523e-08
-2.32282e-07
-9.26601e-08
-8.61287e-08
-1.04435e-07
7.12968e-08
-1.30906e-07
2.42809e-07
-1.7768e-07
4.32353e-07
-2.50961e-07
6.43838e-07
-3.57116e-07
8.80689e-07
-5.01348e-07
1.14445e-06
-6.86569e-07
1.43478e-06
-9.12152e-07
1.74922e-06
2.08243e-06
-1.17221e-06
-4.02935e-13
-1.15646e-12
-1.3927e-12
-4.15609e-12
-2.8989e-12
-7.89121e-12
-5.00408e-12
-1.27933e-11
-7.858e-12
-1.91464e-11
-1.16615e-11
-2.72848e-11
-1.66615e-11
-3.75934e-11
-2.31496e-11
-5.0508e-11
-3.14615e-11
-6.65087e-11
-4.19763e-11
-8.61064e-11
-5.51129e-11
-1.0982e-10
-7.13217e-11
-1.38139e-10
-9.10701e-11
-1.71475e-10
-1.1482e-10
-2.10081e-10
-1.42994e-10
-2.53953e-10
-1.75923e-10
-3.02685e-10
-2.13786e-10
-3.55287e-10
-2.56515e-10
-4.09929e-10
-3.03691e-10
-4.63625e-10
-3.54402e-10
-5.11803e-10
-4.0705e-10
-5.47759e-10
-4.5897e-10
-5.62037e-10
-5.06566e-10
-5.41907e-10
-5.44266e-10
-4.70435e-10
-5.64272e-10
-3.25093e-10
-5.56954e-10
-7.5552e-11
-5.09541e-10
3.14091e-10
-4.04554e-10
8.88399e-10
-2.19764e-10
1.70211e-09
7.31835e-11
2.81973e-09
5.10145e-10
4.31495e-09
1.13776e-09
6.26834e-09
2.01394e-09
8.76372e-09
3.21167e-09
1.18818e-08
4.8205e-09
1.56902e-08
6.94732e-09
2.02297e-08
9.71482e-09
2.5496e-08
1.32556e-08
3.14188e-08
1.77005e-08
3.78402e-08
2.31594e-08
4.44961e-08
2.96955e-08
5.10081e-08
3.72946e-08
5.68907e-08
4.58339e-08
6.15801e-08
5.50594e-08
6.44852e-08
6.45797e-08
6.50548e-08
7.38488e-08
6.28256e-08
8.21786e-08
5.74961e-08
8.8764e-08
4.89576e-08
9.2624e-08
3.72029e-08
9.24969e-08
2.21679e-08
8.6642e-08
3.31672e-09
7.27372e-08
-2.12951e-08
4.81487e-08
-5.6279e-08
1.07881e-08
-1.09271e-07
-3.98092e-08
-1.88035e-07
-1.01668e-07
-2.97229e-07
-1.70452e-07
-4.34851e-07
-2.39587e-07
-5.91865e-07
-3.01327e-07
-7.50925e-07
-3.49099e-07
-8.88548e-07
-3.79345e-07
-9.82508e-07
-3.9371e-07
-1.0209e-06
-3.9621e-07
-1.00516e-06
-3.9191e-07
-9.46137e-07
-3.8431e-07
-8.58082e-07
-3.7522e-07
-7.52082e-07
-3.65584e-07
-6.34968e-07
-3.5606e-07
-5.10153e-07
-3.47437e-07
-3.78452e-07
-3.40974e-07
-2.38744e-07
-3.38695e-07
-8.8408e-08
-3.43747e-07
7.63485e-08
-3.60913e-07
2.59976e-07
-3.95884e-07
4.67323e-07
-4.55645e-07
7.03599e-07
-5.47348e-07
9.72392e-07
-6.77439e-07
1.27454e-06
-8.49992e-07
1.60733e-06
-1.06479e-06
1.96402e-06
2.33132e-06
-1.31368e-06
-4.80239e-13
-7.35838e-13
-1.68532e-12
-3.0625e-12
-3.55255e-12
-6.13911e-12
-6.20991e-12
-1.02496e-11
-9.86518e-12
-1.56015e-11
-1.47903e-11
-2.24665e-11
-2.13184e-11
-3.11691e-11
-2.98437e-11
-4.20841e-11
-4.08217e-11
-5.56304e-11
-5.47694e-11
-7.22573e-11
-7.22614e-11
-9.24259e-11
-9.39194e-11
-1.16579e-10
-1.20393e-10
-1.451e-10
-1.52331e-10
-1.78243e-10
-1.90334e-10
-2.16051e-10
-2.34884e-10
-2.58236e-10
-2.86253e-10
-3.04019e-10
-3.44372e-10
-3.51913e-10
-4.08661e-10
-3.9944e-10
-4.77804e-10
-4.42765e-10
-5.49434e-10
-4.76234e-10
-6.19742e-10
-4.91835e-10
-6.83125e-10
-4.78631e-10
-7.31584e-10
-4.22084e-10
-7.53323e-10
-3.03463e-10
-7.34099e-10
-9.48863e-11
-6.55109e-10
2.3499e-10
-4.89921e-10
7.23098e-10
-2.06021e-10
1.4181e-09
2.37206e-10
2.37639e-09
8.90482e-10
3.66156e-09
1.81577e-09
5.34294e-09
3.08807e-09
7.4913e-09
4.79659e-09
1.01731e-08
7.04472e-09
1.3442e-08
9.94843e-09
1.73259e-08
1.36322e-08
2.18121e-08
1.82206e-08
2.68303e-08
2.38243e-08
3.22363e-08
3.05214e-08
3.77989e-08
3.83332e-08
4.31962e-08
4.71983e-08
4.80254e-08
5.69497e-08
5.18286e-08
6.72983e-08
5.41364e-08
7.78298e-08
5.45231e-08
8.79998e-08
5.26554e-08
9.71469e-08
4.83488e-08
1.04506e-07
4.15982e-08
1.09174e-07
3.25349e-08
1.10033e-07
2.13087e-08
1.0545e-07
7.89918e-09
9.30489e-08
-8.89373e-09
6.95829e-08
-3.28131e-08
3.15107e-08
-7.11991e-08
-2.37344e-08
-1.3279e-07
-9.67089e-08
-2.24255e-07
-1.84689e-07
-3.46872e-07
-2.81476e-07
-4.95078e-07
-3.77597e-07
-6.54803e-07
-4.6267e-07
-8.03475e-07
-5.28906e-07
-9.16271e-07
-5.7417e-07
-9.75635e-07
-6.00766e-07
-9.78564e-07
-6.14579e-07
-9.32324e-07
-6.2035e-07
-8.52311e-07
-6.21333e-07
-7.511e-07
-6.19041e-07
-6.37259e-07
-6.14177e-07
-5.15017e-07
-6.07271e-07
-3.85359e-07
-5.99152e-07
-2.46863e-07
-5.91395e-07
-9.61651e-08
-5.86764e-07
7.17175e-08
-5.89561e-07
2.62772e-07
-6.05786e-07
4.83548e-07
-6.4298e-07
7.40793e-07
-7.09972e-07
1.03938e-06
-8.15813e-07
1.38038e-06
-9.67858e-07
1.75938e-06
-1.16915e-06
2.16532e-06
2.57277e-06
-1.4106e-06
-4.98101e-13
-2.97323e-13
-1.74161e-12
-1.9302e-12
-3.72388e-12
-4.27149e-12
-6.61516e-12
-7.47134e-12
-1.06632e-11
-1.16632e-11
-1.61881e-11
-1.70477e-11
-2.35818e-11
-2.38782e-11
-3.33093e-11
-3.24569e-11
-4.59108e-11
-4.31274e-11
-6.20037e-11
-5.62618e-11
-8.22795e-11
-7.2247e-11
-1.07493e-10
-9.14627e-11
-1.38443e-10
-1.14247e-10
-1.75937e-10
-1.40847e-10
-2.2074e-10
-1.71346e-10
-2.73495e-10
-2.05581e-10
-3.34607e-10
-2.43008e-10
-4.04084e-10
-2.82537e-10
-4.81329e-10
-3.22297e-10
-5.6485e-10
-3.59347e-10
-6.51884e-10
-3.89303e-10
-7.37932e-10
-4.05892e-10
-8.16228e-10
-4.00441e-10
-8.7732e-10
-3.61099e-10
-9.06451e-10
-2.74439e-10
-8.85514e-10
-1.15932e-10
-7.92485e-10
1.4185e-10
-5.93293e-10
5.23795e-10
-2.48108e-10
1.0728e-09
2.93027e-10
1.83514e-09
1.09175e-09
2.86272e-09
2.22194e-09
4.21263e-09
3.7709e-09
5.94223e-09
5.83941e-09
8.1045e-09
8.53982e-09
1.07414e-08
1.19925e-08
1.38731e-08
1.63201e-08
1.74843e-08
2.16375e-08
2.15128e-08
2.80372e-08
2.58364e-08
3.55714e-08
3.02646e-08
4.42303e-08
3.45372e-08
5.39216e-08
3.83339e-08
6.44533e-08
4.12968e-08
7.55231e-08
4.30665e-08
8.67183e-08
4.33277e-08
9.75204e-08
4.18532e-08
1.07318e-07
3.85515e-08
1.15413e-07
3.35023e-08
1.20994e-07
2.69537e-08
1.2317e-07
1.91325e-08
1.20565e-07
1.05043e-08
1.11123e-07
5.48295e-10