/*--------------------------------*- C++ -*----------------------------------*\
| =========                 |                                                 |
| \\      /  F ield         | OpenFOAM: The Open Source CFD Toolbox           |
|  \\    /   O peration     | Version:  2412                                  |
|   \\  /    A nd           | Website:  www.openfoam.com                      |
|    \\/     M anipulation  |                                                 |
\*---------------------------------------------------------------------------*/
FoamFile
{
    version     2.0;
    format      ascii;
    arch        "LSB;label=32;scalar=64";
    class       volVectorField;
    location    "2000";
    object      U;
}
// * * * * * * * * * * * * * * * * * * * * * * * * * * * * * * * * * * * * * //

dimensions      [0 1 -1 0 0 0 0];

internalField   nonuniform List<vector> 
150400
(
(-4.44187e-12 0 1.45843e-11)
(-1.35152e-10 0 -7.55648e-12)
(-1.9847e-10 0 1.56241e-11)
(-2.20474e-10 0 4.37042e-11)
(-1.56858e-10 0 7.77224e-11)
(-2.04723e-11 0 1.22533e-10)
(1.83156e-10 0 1.81728e-10)
(4.66903e-10 0 2.47423e-10)
(8.46577e-10 0 3.27932e-10)
(1.32988e-09 0 4.43483e-10)
(1.97168e-09 0 5.12568e-10)
(2.84304e-09 0 3.29824e-10)
(3.87405e-09 0 -7.55725e-11)
(4.91034e-09 0 -5.36255e-10)
(5.97427e-09 0 -5.67178e-10)
(7.23074e-09 0 -2.61088e-10)
(8.63317e-09 0 2.35734e-11)
(1.01924e-08 0 3.20996e-10)
(1.20836e-08 0 8.57692e-10)
(1.43537e-08 0 1.52887e-09)
(1.63885e-08 0 1.62484e-09)
(1.84652e-08 0 1.67303e-09)
(2.05612e-08 0 1.6849e-09)
(2.26253e-08 0 1.65352e-09)
(2.45726e-08 0 1.5718e-09)
(2.64398e-08 0 1.43661e-09)
(2.81214e-08 0 1.22424e-09)
(3.0024e-08 0 9.63142e-10)
(3.04379e-08 0 6.47991e-10)
(3.19504e-08 0 6.42701e-10)
(3.44672e-08 0 -1.20416e-09)
(3.02137e-08 0 -2.77573e-09)
(2.6906e-08 0 -3.53501e-09)
(2.42695e-08 0 -5.24099e-09)
(2.20563e-08 0 -7.55859e-09)
(7.38974e-09 0 -1.19736e-08)
(-2.79411e-08 0 6.41052e-09)
(-3.28154e-06 0 -1.42921e-07)
(-1.06972e-05 0 -8.91365e-08)
(-1.86771e-05 0 -1.21407e-07)
(-3.01099e-05 0 -3.23067e-07)
(-4.55847e-05 0 -3.22903e-07)
(-6.72395e-05 0 4.99389e-07)
(-9.61174e-05 0 5.73385e-06)
(-0.000132434 0 2.98154e-06)
(-0.000183231 0 1.05673e-06)
(-0.000244704 0 4.02414e-06)
(-0.000319536 0 8.89556e-06)
(-0.000407682 0 1.40728e-05)
(-0.000508076 0 1.95319e-05)
(-0.000613177 0 2.48719e-05)
(-0.000700561 0 3.53282e-05)
(-0.000743517 0 4.71443e-05)
(-0.000735779 0 5.06989e-05)
(-0.000659268 0 5.33966e-06)
(-0.000483912 0 -5.17379e-05)
(-0.000184915 0 -8.69607e-05)
(0.000290507 0 -0.000226416)
(0.00066704 0 -0.000280756)
(0.00134418 0 -0.000192155)
(0.00203048 0 -0.000187541)
(0.00272896 0 -0.000193463)
(0.00343633 0 -0.000184324)
(0.00410438 0 -0.000148611)
(0.00470181 0 -9.63806e-05)
(0.00522287 0 -3.45175e-05)
(0.00564405 0 2.33401e-05)
(0.00593812 0 8.16134e-05)
(0.0060964 0 0.000120829)
(0.00612884 0 0.000139594)
(0.00604018 0 0.000156375)
(0.00585594 0 0.000157087)
(0.00561321 0 0.000146734)
(0.00533175 0 0.000126891)
(0.005041 0 9.52779e-05)
(0.00477374 0 4.66483e-05)
(0.00458303 0 -1.02297e-05)
(0.0045199 0 -8.9653e-05)
(0.00463602 0 -0.000184975)
(0.0049601 0 -0.000295267)
(-5.3131e-10 0 7.1777e-10)
(-1.85889e-09 0 7.40427e-10)
(-1.79971e-09 0 4.17051e-10)
(4.25069e-10 0 -3.66318e-11)
(5.91639e-09 0 -6.20693e-10)
(1.55145e-08 0 -1.26889e-09)
(3.00997e-08 0 -2.02403e-09)
(5.12831e-08 0 -2.40896e-09)
(8.06549e-08 0 -3.84331e-09)
(1.20124e-07 0 -5.68494e-09)
(1.72181e-07 0 -8.11683e-09)
(2.39761e-07 0 -1.13803e-08)
(3.26199e-07 0 -1.56732e-08)
(4.31774e-07 0 -3.19473e-08)
(5.69141e-07 0 -3.29084e-08)
(7.42922e-07 0 -2.64761e-08)
(9.50174e-07 0 -3.12564e-08)
(1.19834e-06 0 -3.73865e-08)
(1.49186e-06 0 -4.42851e-08)
(1.8341e-06 0 -5.16981e-08)
(2.22689e-06 0 -5.94832e-08)
(2.66958e-06 0 -6.74757e-08)
(3.15773e-06 0 -7.52531e-08)
(3.68202e-06 0 -8.22799e-08)
(4.22692e-06 0 -8.80221e-08)
(4.77283e-06 0 -9.26173e-08)
(5.28956e-06 0 -9.0815e-08)
(5.74072e-06 0 -8.60121e-08)
(6.00656e-06 0 -8.1311e-08)
(5.9414e-06 0 -1.02078e-07)
(5.43936e-06 0 -1.34068e-08)
(4.31741e-06 0 9.93372e-08)
(2.30087e-06 0 1.5294e-07)
(-1.02905e-06 0 3.12933e-07)
(-6.22124e-06 0 5.74795e-07)
(-1.43482e-05 0 1.13004e-06)
(-2.6339e-05 0 4.36838e-06)
(-4.24759e-05 0 1.08657e-05)
(-6.51284e-05 0 1.64721e-05)
(-9.59314e-05 0 2.21163e-05)
(-0.000137288 0 2.98396e-05)
(-0.000191543 0 4.02994e-05)
(-0.000261477 0 5.38148e-05)
(-0.000349858 0 7.14528e-05)
(-0.000458562 0 9.1615e-05)
(-0.000589051 0 0.00011461)
(-0.000738975 0 0.000138507)
(-0.000902947 0 0.000161413)
(-0.00107117 0 0.00018104)
(-0.00122586 0 0.000193558)
(-0.00134454 0 0.000180052)
(-0.00139397 0 9.44844e-05)
(-0.00134764 0 -1.93302e-05)
(-0.00117213 0 -0.000134215)
(-0.000877704 0 -0.000281632)
(-0.000451065 0 -0.000466745)
(0.000107331 0 -0.000653494)
(0.000804187 0 -0.000840988)
(0.00159587 0 -0.00100557)
(0.00250955 0 -0.00112938)
(0.0034963 0 -0.00121797)
(0.00452193 0 -0.00124646)
(0.00555011 0 -0.00121744)
(0.00654994 0 -0.00113353)
(0.00748058 0 -0.00102697)
(0.0083513 0 -0.000902243)
(0.0090984 0 -0.000724546)
(0.00970104 0 -0.000508553)
(0.0101857 0 -0.000289041)
(0.0105324 0 -7.86655e-05)
(0.0107399 0 0.000115665)
(0.0108169 0 0.000274224)
(0.0107749 0 0.000379908)
(0.0106216 0 0.000444627)
(0.010375 0 0.000460344)
(0.0100734 0 0.000407911)
(0.00976857 0 0.000267082)
(0.00950965 0 4.06596e-05)
(0.00932402 0 -0.000259126)
(0.00921762 0 -0.000524344)
(-3.07656e-10 0 2.12403e-09)
(-5.41366e-10 0 1.20999e-09)
(2.27694e-09 0 -2.03244e-09)
(9.13984e-09 0 -6.85693e-09)
(2.16248e-08 0 -1.31691e-08)
(4.13767e-08 0 -2.12472e-08)
(7.03337e-08 0 -3.14257e-08)
(1.10974e-07 0 -4.4255e-08)
(1.66279e-07 0 -6.03053e-08)
(2.39838e-07 0 -8.02648e-08)
(3.35907e-07 0 -1.0492e-07)
(4.59445e-07 0 -1.35199e-07)
(6.16085e-07 0 -1.72169e-07)
(8.12338e-07 0 -2.16494e-07)
(1.05513e-06 0 -2.68806e-07)
(1.35158e-06 0 -3.28871e-07)
(1.70873e-06 0 -3.9648e-07)
(2.13304e-06 0 -4.71238e-07)
(2.62969e-06 0 -5.52083e-07)
(3.20182e-06 0 -6.36752e-07)
(3.84905e-06 0 -7.21607e-07)
(4.56572e-06 0 -8.01149e-07)
(5.33865e-06 0 -8.67648e-07)
(6.14464e-06 0 -9.11154e-07)
(6.94699e-06 0 -9.1987e-07)
(7.70033e-06 0 -8.84396e-07)
(8.32683e-06 0 -7.87837e-07)
(8.69621e-06 0 -6.18924e-07)
(8.61433e-06 0 -3.95219e-08)
(7.88477e-06 0 6.98398e-07)
(6.2532e-06 0 1.57534e-06)
(3.33947e-06 0 2.92191e-06)
(-1.40245e-06 0 4.9149e-06)
(-8.69598e-06 0 7.76499e-06)
(-1.94639e-05 0 1.18266e-05)
(-3.49537e-05 0 1.75946e-05)
(-5.65951e-05 0 2.60789e-05)
(-8.55778e-05 0 3.79928e-05)
(-0.000123767 0 5.25593e-05)
(-0.00017434 0 7.04321e-05)
(-0.000240177 0 9.30449e-05)
(-0.000323995 0 0.000121233)
(-0.000428141 0 0.000155201)
(-0.000553526 0 0.000195092)
(-0.00070046 0 0.000236617)
(-0.00086512 0 0.000278791)
(-0.00103968 0 0.000314429)
(-0.00121101 0 0.000335569)
(-0.00136096 0 0.000331296)
(-0.00146241 0 0.000287412)
(-0.00149579 0 0.000189861)
(-0.00144021 0 3.02254e-05)
(-0.00129638 0 -0.00017878)
(-0.00103932 0 -0.000421766)
(-0.000660864 0 -0.000704491)
(-0.000158939 0 -0.00101193)
(0.000467497 0 -0.00132117)
(0.00121771 0 -0.0016155)
(0.00207703 0 -0.0018798)
(0.0030296 0 -0.00209181)
(0.004046 0 -0.0022281)
(0.00509225 0 -0.00227768)
(0.00613423 0 -0.00224021)
(0.00714653 0 -0.00212091)
(0.00809943 0 -0.00193465)
(0.00896485 0 -0.0016977)
(0.00972768 0 -0.00141204)
(0.0103868 0 -0.00109337)
(0.0109375 0 -0.000765896)
(0.0113721 0 -0.000443868)
(0.0116804 0 -0.000150031)
(0.0118968 0 0.000108009)
(0.0119592 0 0.000341811)
(0.0119131 0 0.000535386)
(0.0117722 0 0.000657635)
(0.01154 0 0.000678243)
(0.0111947 0 0.000592173)
(0.0107623 0 0.000417249)
(0.010224 0 0.000188951)
(0.00955987 0 -1.78032e-05)
(1.93514e-10 0 2.19215e-09)
(2.03598e-09 0 -1.1747e-09)
(8.40263e-09 0 -8.49458e-09)
(2.01914e-08 0 -1.90624e-08)
(3.93256e-08 0 -3.29718e-08)
(6.7983e-08 0 -5.07914e-08)
(1.08793e-07 0 -7.33642e-08)
(1.64959e-07 0 -1.01774e-07)
(2.40329e-07 0 -1.37265e-07)
(3.39482e-07 0 -1.8124e-07)
(4.67765e-07 0 -2.35246e-07)
(6.31298e-07 0 -3.00929e-07)
(8.36892e-07 0 -3.79925e-07)
(1.09203e-06 0 -4.73502e-07)
(1.40462e-06 0 -5.82497e-07)
(1.78271e-06 0 -7.06982e-07)
(2.23407e-06 0 -8.46233e-07)
(2.76519e-06 0 -9.98683e-07)
(3.38041e-06 0 -1.16095e-06)
(4.08049e-06 0 -1.32709e-06)
(4.86076e-06 0 -1.4879e-06)
(5.70871e-06 0 -1.63001e-06)
(6.60085e-06 0 -1.73499e-06)
(7.49919e-06 0 -1.77881e-06)
(8.34251e-06 0 -1.73266e-06)
(9.03916e-06 0 -1.58232e-06)
(9.4983e-06 0 -1.16669e-06)
(9.48228e-06 0 -4.23429e-07)
(8.78573e-06 0 6.91739e-07)
(7.18562e-06 0 2.30272e-06)
(4.20555e-06 0 4.63165e-06)
(-6.84512e-07 0 7.94318e-06)
(-8.16773e-06 0 1.25696e-05)
(-1.91342e-05 0 1.89922e-05)
(-3.47049e-05 0 2.78375e-05)
(-5.62836e-05 0 3.99431e-05)
(-8.54199e-05 0 5.63763e-05)
(-0.000123674 0 7.79292e-05)
(-0.000173239 0 0.000104883)
(-0.000236948 0 0.000138168)
(-0.000317292 0 0.000178877)
(-0.000416079 0 0.000227119)
(-0.000534024 0 0.000282273)
(-0.000669803 0 0.000341159)
(-0.000819815 0 0.000397626)
(-0.000975369 0 0.000448752)
(-0.0011258 0 0.000478007)
(-0.00125595 0 0.000474324)
(-0.00134698 0 0.000427346)
(-0.00138568 0 0.000321365)
(-0.00135636 0 0.000144082)
(-0.00125538 0 -0.000100314)
(-0.00107736 0 -0.000403421)
(-0.000804261 0 -0.000755611)
(-0.00042195 0 -0.00115235)
(7.72229e-05 0 -0.00157961)
(0.000699068 0 -0.00201154)
(0.0014436 0 -0.00242158)
(0.00229761 0 -0.00278186)
(0.00323676 0 -0.00306231)
(0.00422953 0 -0.00323679)
(0.00524192 0 -0.00329228)
(0.00624012 0 -0.00323058)
(0.00719518 0 -0.0030627)
(0.00808222 0 -0.00280545)
(0.00888036 0 -0.00247725)
(0.00957835 0 -0.00209294)
(0.0101744 0 -0.0016726)
(0.0106667 0 -0.00123754)
(0.011052 0 -0.000804464)
(0.0113256 0 -0.000390318)
(0.0114876 0 -7.49104e-06)
(0.0115341 0 0.000339152)
(0.011469 0 0.000628467)
(0.0112909 0 0.00084403)
(0.0109939 0 0.000977452)
(0.0105562 0 0.00101577)
(0.00999202 0 0.000980617)
(0.00926318 0 0.000884645)
(0.0083704 0 0.000828104)
(5.75103e-10 0 7.03187e-10)
(4.53676e-09 0 -6.5317e-09)
(1.40005e-08 0 -1.92162e-08)
(2.97856e-08 0 -3.68769e-08)
(5.38358e-08 0 -6.00351e-08)
(8.86023e-08 0 -8.97238e-08)
(1.37043e-07 0 -1.27355e-07)
(2.02726e-07 0 -1.7465e-07)
(2.89901e-07 0 -2.33576e-07)
(4.03557e-07 0 -3.06308e-07)
(5.49446e-07 0 -3.95177e-07)
(7.34064e-07 0 -5.02562e-07)
(9.64547e-07 0 -6.3071e-07)
(1.24854e-06 0 -7.81406e-07)
(1.59394e-06 0 -9.55676e-07)
(2.00854e-06 0 -1.15338e-06)
(2.49946e-06 0 -1.37282e-06)
(3.07204e-06 0 -1.61029e-06)
(3.72858e-06 0 -1.85891e-06)
(4.46663e-06 0 -2.10743e-06)
(5.27669e-06 0 -2.33892e-06)
(6.1392e-06 0 -2.52905e-06)
(7.02062e-06 0 -2.64414e-06)
(7.86975e-06 0 -2.6382e-06)
(8.60608e-06 0 -2.44381e-06)
(9.11881e-06 0 -2.00979e-06)
(9.24725e-06 0 -1.23159e-06)
(8.78724e-06 0 1.48311e-07)
(7.48568e-06 0 2.22341e-06)
(4.97643e-06 0 5.20382e-06)
(7.62271e-07 0 9.40614e-06)
(-5.76588e-06 0 1.52526e-05)
(-1.53731e-05 0 2.32747e-05)
(-2.90177e-05 0 3.41584e-05)
(-4.78644e-05 0 4.87615e-05)
(-7.32926e-05 0 6.81307e-05)
(-0.000106815 0 9.34542e-05)
(-0.000150023 0 0.000125786)
(-0.00020482 0 0.000165894)
(-0.000273218 0 0.000214602)
(-0.000356628 0 0.000272284)
(-0.000455391 0 0.00033805)
(-0.000568207 0 0.000408991)
(-0.000691612 0 0.000479817)
(-0.000819499 0 0.000542221)
(-0.000942604 0 0.000585388)
(-0.00105 0 0.000595149)
(-0.00113056 0 0.000558702)
(-0.00117359 0 0.000464789)
(-0.00117043 0 0.000302057)
(-0.00111742 0 6.56341e-05)
(-0.00101052 0 -0.000244988)
(-0.000840129 0 -0.000626626)
(-0.000589561 0 -0.00107429)
(-0.000241587 0 -0.00158057)
(0.000216849 0 -0.00212708)
(0.000795581 0 -0.00268285)
(0.00149645 0 -0.00321051)
(0.00230743 0 -0.00366859)
(0.00320289 0 -0.00401677)
(0.00414848 0 -0.00422418)
(0.00510688 0 -0.00427714)
(0.00604206 0 -0.00417971)
(0.00692364 0 -0.00394875)
(0.00772917 0 -0.00360814)
(0.00844353 0 -0.00318357)
(0.0090591 0 -0.00269813)
(0.00957373 0 -0.00217467)
(0.00998675 0 -0.00163461)
(0.0102968 0 -0.00109565)
(0.0105007 0 -0.000573869)
(0.0105947 0 -8.03994e-05)
(0.010576 0 0.000376697)
(0.0104423 0 0.000783467)
(0.0101855 0 0.00112489)
(0.009797 0 0.00138992)
(0.00926935 0 0.00157513)
(0.00858394 0 0.00168911)
(0.00770433 0 0.00178223)
(0.00657664 0 0.00194913)
(8.56047e-10 0 -1.9909e-09)
(6.34194e-09 0 -1.42806e-08)
(1.76374e-08 0 -3.29009e-08)
(3.55955e-08 0 -5.81701e-08)
(6.19206e-08 0 -9.11425e-08)
(9.90644e-08 0 -1.33401e-07)
(1.49991e-07 0 -1.86949e-07)
(2.18261e-07 0 -2.54152e-07)
(3.08082e-07 0 -3.37678e-07)
(4.24343e-07 0 -4.40437e-07)
(5.72624e-07 0 -5.65477e-07)
(7.59147e-07 0 -7.15828e-07)
(9.9067e-07 0 -8.94241e-07)
(1.27429e-06 0 -1.10282e-06)
(1.61719e-06 0 -1.34254e-06)
(2.02615e-06 0 -1.61268e-06)
(2.50692e-06 0 -1.91011e-06)
(3.06311e-06 0 -2.22837e-06)
(3.69469e-06 0 -2.55627e-06)
(4.39621e-06 0 -2.8761e-06)
(5.1542e-06 0 -3.16154e-06)
(5.94379e-06 0 -3.37526e-06)
(6.72416e-06 0 -3.46602e-06)
(7.43523e-06 0 -3.36629e-06)
(7.99101e-06 0 -2.98629e-06)
(8.26365e-06 0 -2.21187e-06)
(8.07033e-06 0 -8.46027e-07)
(7.20034e-06 0 1.3072e-06)
(5.37427e-06 0 4.49734e-06)
(2.19612e-06 0 9.04584e-06)
(-2.84029e-06 0 1.53877e-05)
(-1.03554e-05 0 2.40839e-05)
(-2.11073e-05 0 3.58332e-05)
(-3.60155e-05 0 5.15009e-05)
(-5.61526e-05 0 7.21271e-05)
(-8.2728e-05 0 9.8907e-05)
(-0.000117018 0 0.00013311)
(-0.000160296 0 0.000175877)
(-0.000213835 0 0.000228014)
(-0.000278624 0 0.000289894)
(-0.000354845 0 0.000360891)
(-0.000441438 0 0.000438613)
(-0.000535707 0 0.000518239)
(-0.000633011 0 0.000592155)
(-0.000727107 0 0.000650132)
(-0.000810027 0 0.000679239)
(-0.00087487 0 0.000665811)
(-0.000914754 0 0.000598688)
(-0.000925611 0 0.000467953)
(-0.000904813 0 0.000265638)
(-0.000850913 0 -1.4034e-05)
(-0.000759401 0 -0.000375316)
(-0.000619764 0 -0.000821317)
(-0.000415381 0 -0.00135145)
(-0.000127184 0 -0.00195754)
(0.000262522 0 -0.00261775)
(0.000767897 0 -0.0032948)
(0.00139405 0 -0.00393964)
(0.00213152 0 -0.00449627)
(0.00295497 0 -0.00491196)
(0.00382777 0 -0.00514923)
(0.00470938 0 -0.00519358)
(0.0055621 0 -0.00505349)
(0.00635618 0 -0.00475398)
(0.00707183 0 -0.00432763)
(0.00769775 0 -0.00380759)
(0.00822903 0 -0.00322319)
(0.00866432 0 -0.00259972)
(0.00900317 0 -0.00195875)
(0.00924398 0 -0.00131705)
(0.00938313 0 -0.000688481)
(0.00941541 0 -8.4085e-05)
(0.00933451 0 0.000487711)
(0.00913429 0 0.00101594)
(0.00880587 0 0.00148808)
(0.00833741 0 0.00189411)
(0.00770834 0 0.00223779)
(0.00688072 0 0.00254854)
(0.00580622 0 0.00290082)
(0.00439505 0 0.00337804)
(6.82732e-10 0 -5.33579e-09)
(6.91657e-09 0 -2.31824e-08)
(1.84917e-08 0 -4.77615e-08)
(3.63657e-08 0 -8.04286e-08)
(6.19085e-08 0 -1.22843e-07)
(9.73334e-08 0 -1.77154e-07)
(1.45329e-07 0 -2.45935e-07)
(2.09115e-07 0 -3.32144e-07)
(2.92474e-07 0 -4.39078e-07)
(3.99763e-07 0 -5.70282e-07)
(5.35914e-07 0 -7.29418e-07)
(7.06369e-07 0 -9.20038e-07)
(9.16972e-07 0 -1.14526e-06)
(1.17377e-06 0 -1.40732e-06)
(1.48269e-06 0 -1.70693e-06)
(1.84913e-06 0 -2.0425e-06)
(2.27722e-06 0 -2.40917e-06)
(2.76876e-06 0 -2.79744e-06)
(3.32183e-06 0 -3.1914e-06)
(3.92899e-06 0 -3.56639e-06)
(4.57473e-06 0 -3.88609e-06)
(5.23207e-06 0 -4.09919e-06)
(5.85742e-06 0 -4.13583e-06)
(6.3906e-06 0 -3.90464e-06)
(6.74074e-06 0 -3.28215e-06)
(6.7794e-06 0 -2.10614e-06)
(6.33393e-06 0 -1.54749e-07)
(5.19305e-06 0 2.84939e-06)
(3.07541e-06 0 7.23256e-06)
(-3.93251e-07 0 1.34191e-05)
(-5.68157e-06 0 2.19511e-05)
(-1.33572e-05 0 3.35114e-05)
(-2.40955e-05 0 4.8929e-05)
(-3.8681e-05 0 6.91988e-05)
(-5.79861e-05 0 9.54697e-05)
(-8.29313e-05 0 0.000128996)
(-0.000114407 0 0.000171026)
(-0.000153176 0 0.000222585)
(-0.000199763 0 0.000284203)
(-0.000254191 0 0.000355584)
(-0.000315619 0 0.000435029)
(-0.000382081 0 0.000518774)
(-0.000450342 0 0.00060044)
(-0.000515895 0 0.0006708)
(-0.000574489 0 0.000718552)
(-0.000617063 0 0.000732705)
(-0.000647936 0 0.000699755)
(-0.000658443 0 0.000609827)
(-0.000650771 0 0.000455079)
(-0.0006254 0 0.000228177)
(-0.000582439 0 -7.86021e-05)
(-0.000518417 0 -0.000474418)
(-0.00042382 0 -0.000968417)
(-0.000282541 0 -0.00156511)
(-7.39889e-05 0 -0.0022581)
(0.000223209 0 -0.00302346)
(0.000628087 0 -0.00381757)
(0.00115093 0 -0.00457914)
(0.00178645 0 -0.00523573)
(0.00251063 0 -0.00571949)
(0.00328552 0 -0.00598475)
(0.00406844 0 -0.00601696)
(0.00482125 0 -0.00583101)
(0.00551586 0 -0.00546223)
(0.00613551 0 -0.00495284)
(0.00667195 0 -0.00434309)
(0.00712221 0 -0.0036668)
(0.00748555 0 -0.00295078)
(0.00776085 0 -0.00221579)
(0.00794543 0 -0.00147693)
(0.00803414 0 -0.000746018)
(0.00801926 0 -3.23102e-05)
(0.00789138 0 0.00065659)
(0.0076399 0 0.00131125)
(0.0072501 0 0.00192326)
(0.00669941 0 0.00249165)
(0.00595191 0 0.00303506)
(0.00495637 0 0.00359966)
(0.00365618 0 0.00425997)
(0.00203263 0 0.00510784)
(4.91759e-10 0 -8.66361e-09)
(6.26877e-09 0 -3.18195e-08)
(1.64801e-08 0 -6.1758e-08)
(3.19368e-08 0 -1.00891e-07)
(5.36604e-08 0 -1.51487e-07)
(8.3433e-08 0 -2.16216e-07)
(1.2343e-07 0 -2.98142e-07)
(1.76254e-07 0 -4.00723e-07)
(2.44946e-07 0 -5.27767e-07)
(3.32991e-07 0 -6.83329e-07)
(4.44302e-07 0 -8.71542e-07)
(5.83164e-07 0 -1.09635e-06)
(7.5413e-07 0 -1.3611e-06)
(9.6183e-07 0 -1.668e-06)
(1.2107e-06 0 -2.01737e-06)
(1.50455e-06 0 -2.40666e-06)
(1.84593e-06 0 -2.82917e-06)
(2.2352e-06 0 -3.27243e-06)
(2.66927e-06 0 -3.71596e-06)
(3.14011e-06 0 -4.1285e-06)
(3.63248e-06 0 -4.46404e-06)
(4.12078e-06 0 -4.6578e-06)
(4.56185e-06 0 -4.62353e-06)
(4.91195e-06 0 -4.24837e-06)
(5.07383e-06 0 -3.37413e-06)
(4.93826e-06 0 -1.80016e-06)
(4.35441e-06 0 7.35582e-07)
(3.13163e-06 0 4.56176e-06)
(1.02104e-06 0 1.00809e-05)
(-2.29497e-06 0 1.77994e-05)
(-7.20706e-06 0 2.83473e-05)
(-1.41771e-05 0 4.2494e-05)
(-2.37348e-05 0 6.1155e-05)
(-3.64626e-05 0 8.53918e-05)
(-5.29613e-05 0 0.000116381)
(-7.37943e-05 0 0.000155338)
(-9.94018e-05 0 0.000203374)
(-0.00012999 0 0.00026125)
(-0.000165402 0 0.000329052)
(-0.000204924 0 0.000405776)
(-0.00024708 0 0.000488791)
(-0.000289563 0 0.000573303)
(-0.000329358 0 0.000652124)
(-0.000362479 0 0.000715879)
(-0.000387691 0 0.000752334)
(-0.000399346 0 0.000754127)
(-0.00040123 0 0.0007062)
(-0.000390793 0 0.000602124)
(-0.000372398 0 0.000435299)
(-0.000348846 0 0.000198045)
(-0.000322479 0 -0.000119661)
(-0.000292237 0 -0.000532059)
(-0.000251273 0 -0.00105487)
(-0.000185071 0 -0.00169909)
(-7.20695e-05 0 -0.00246244)
(0.000112652 0 -0.00332033)
(0.000392754 0 -0.00422443)
(0.000785217 0 -0.00510135)
(0.0012911 0 -0.00586023)
(0.00188969 0 -0.00641491)
(0.00254397 0 -0.00670986)
(0.00320982 0 -0.00673109)
(0.0038503 0 -0.00650144)
(0.0044387 0 -0.00606816)
(0.00496082 0 -0.00548343)
(0.00541058 0 -0.00479389)
(0.00578604 0 -0.00403649)
(0.00608642 0 -0.00323837)
(0.00630964 0 -0.00241867)
(0.00645125 0 -0.00159027)
(0.00650374 0 -0.000762149)
(0.00645648 0 5.90887e-05)
(0.00629565 0 0.000867668)
(0.00600411 0 0.0016585)
(0.00555827 0 0.00243067)
(0.00492392 0 0.00319436)
(0.00405545 0 0.00398014)
(0.00290203 0 0.00484029)
(0.00141921 0 0.00584132)
(-0.000423014 0 0.00705495)
(3.8877e-10 0 -1.13964e-08)
(4.5956e-09 0 -3.88082e-08)
(1.19848e-08 0 -7.29121e-08)
(2.29938e-08 0 -1.16971e-07)
(3.83039e-08 0 -1.73758e-07)
(5.91262e-08 0 -2.46351e-07)
(8.69445e-08 0 -3.3819e-07)
(1.23532e-07 0 -4.53103e-07)
(1.70956e-07 0 -5.95266e-07)
(2.31574e-07 0 -7.69097e-07)
(3.0802e-07 0 -9.79056e-07)
(4.0316e-07 0 -1.22933e-06)
(5.20006e-07 0 -1.5234e-06)
(6.61578e-07 0 -1.86337e-06)
(8.30682e-07 0 -2.24913e-06)
(1.02957e-06 0 -2.67721e-06)
(1.25945e-06 0 -3.13928e-06)
(1.51973e-06 0 -3.62026e-06)
(1.80705e-06 0 -4.09576e-06)
(2.11436e-06 0 -4.52888e-06)
(2.42882e-06 0 -4.86523e-06)
(2.72956e-06 0 -5.02862e-06)
(2.98844e-06 0 -4.92686e-06)
(3.16454e-06 0 -4.4149e-06)
(3.17592e-06 0 -3.31109e-06)
(2.94455e-06 0 -1.38733e-06)
(2.35207e-06 0 1.65336e-06)
(1.25102e-06 0 6.1817e-06)
(-5.47786e-07 0 1.26571e-05)
(-3.2794e-06 0 2.16446e-05)
(-7.22415e-06 0 3.38321e-05)
(-1.27006e-05 0 5.00392e-05)
(-2.00523e-05 0 7.12177e-05)
(-2.96221e-05 0 9.84333e-05)
(-4.17092e-05 0 0.000132816)
(-5.65075e-05 0 0.000175463)
(-7.40229e-05 0 0.000227262)
(-9.39747e-05 0 0.000288641)
(-0.000115694 0 0.000359211)
(-0.00013802 0 0.000437354)
(-0.00015925 0 0.00051976)
(-0.000177225 0 0.000601071)
(-0.000189578 0 0.000673855)
(-0.000194483 0 0.000728947)
(-0.000188928 0 0.00075466)
(-0.000176905 0 0.000746098)
(-0.000153808 0 0.000690893)
(-0.000128785 0 0.000581592)
(-0.000103789 0 0.000413498)
(-8.45715e-05 0 0.000179045)
(-7.62641e-05 0 -0.000133537)
(-8.09561e-05 0 -0.000543225)
(-9.66812e-05 0 -0.00107287)
(-0.00011182 0 -0.00174173)
(-0.000104978 0 -0.00255417)
(-4.89375e-05 0 -0.00348792)
(8.61891e-05 0 -0.00449142)
(0.000322666 0 -0.00547992)
(0.000671221 0 -0.00634361)
(0.00111814 0 -0.0069752)
(0.00163141 0 -0.00730627)
(0.0021643 0 -0.00732321)
(0.00268494 0 -0.00705853)
(0.00316519 0 -0.00657111)
(0.00359214 0 -0.00592304)
(0.00396058 0 -0.00516675)
(0.00426871 0 -0.00434134)
(0.00451515 0 -0.00347342)
(0.00469665 0 -0.00257986)
(0.0048069 0 -0.00167047)
(0.00483581 0 -0.00075061)
(0.00476861 0 0.000177057)
(0.00458697 0 0.00111002)
(0.00426608 0 0.00205006)
(0.00377323 0 0.00300545)
(0.00306606 0 0.00399565)
(0.00209709 0 0.00505577)
(0.000822323 0 0.00623357)
(-0.00079122 0 0.00758411)
(-0.00276081 0 0.00916553)
(2.74248e-10 0 -1.30672e-08)
(2.21175e-09 0 -4.30752e-08)
(5.73499e-09 0 -7.96666e-08)
(1.08599e-08 0 -1.2664e-07)
(1.79356e-08 0 -1.87078e-07)
(2.7515e-08 0 -2.64312e-07)
(4.02754e-08 0 -3.62001e-07)
(5.70248e-08 0 -4.84189e-07)
(7.87034e-08 0 -6.35266e-07)
(1.06382e-07 0 -8.19854e-07)
(1.41251e-07 0 -1.04259e-06)
(1.84599e-07 0 -1.3078e-06)
(2.37766e-07 0 -1.61899e-06)
(3.02063e-07 0 -1.97815e-06)
(3.78653e-07 0 -2.38485e-06)
(4.68354e-07 0 -2.83491e-06)
(5.7134e-07 0 -3.31882e-06)
(6.86687e-07 0 -3.81955e-06)
(8.11776e-07 0 -4.30981e-06)
(9.41999e-07 0 -4.74884e-06)
(1.0658e-06 0 -5.07967e-06)
(1.18005e-06 0 -5.22235e-06)
(1.26888e-06 0 -5.05708e-06)
(1.27762e-06 0 -4.43304e-06)
(1.18595e-06 0 -3.15641e-06)
(9.35961e-07 0 -9.76157e-07)
(4.56524e-07 0 2.42976e-06)
(-3.41123e-07 0 7.46113e-06)
(-1.56819e-06 0 1.46103e-05)
(-3.35768e-06 0 2.44752e-05)
(-5.85895e-06 0 3.77696e-05)
(-9.22602e-06 0 5.53256e-05)
(-1.35986e-05 0 7.80849e-05)
(-1.90712e-05 0 0.000107065)
(-2.56476e-05 0 0.000143293)
(-3.3184e-05 0 0.000187693)
(-4.13191e-05 0 0.000240897)
(-4.94052e-05 0 0.00030299)
(-5.64525e-05 0 0.000373173)
(-6.11131e-05 0 0.000449399)
(-6.17402e-05 0 0.000528017)
(-5.65632e-05 0 0.000603569)
(-4.39952e-05 0 0.000668859)
(-2.33695e-05 0 0.00071541)
(6.23869e-06 0 0.000734441)
(3.90871e-05 0 0.000718321)
(7.94218e-05 0 0.00065907)
(0.000116478 0 0.000551808)
(0.000146192 0 0.00039153)
(0.00016125 0 0.000171308)
(0.000152219 0 -0.000123492)
(0.000118101 0 -0.000509226)
(4.83759e-05 0 -0.00102103)
(-4.71783e-05 0 -0.00168766)
(-0.000149881 0 -0.00252313)
(-0.000233487 0 -0.00350962)
(-0.000260289 0 -0.00459617)
(-0.000202715 0 -0.00568952)
(-3.90901e-05 0 -0.00665992)
(0.000228721 0 -0.00737853)
(0.000581895 0 -0.0077585)
(0.000966176 0 -0.00778478)
(0.00136175 0 -0.00750002)
(0.00173427 0 -0.00697332)
(0.00206976 0 -0.00627689)
(0.0023625 0 -0.00546874)
(0.00261002 0 -0.00458964)
(0.00281008 0 -0.0036652)
(0.00295831 0 -0.00270953)
(0.00304677 0 -0.00172861)
(0.00306299 0 -0.000723064)
(0.00298725 0 0.000309363)
(0.00279933 0 0.00137081)
(0.00246358 0 0.00247383)
(0.00194323 0 0.00363216)
(0.00119068 0 0.00487102)
(0.000159754 0 0.00622352)
(-0.00118704 0 0.00772781)
(-0.00287183 0 0.009424)
(-0.00489772 0 0.0113524)
(1.38759e-10 0 -1.34154e-08)
(-4.78352e-10 0 -4.39712e-08)
(-1.30305e-09 0 -8.10845e-08)
(-2.72113e-09 0 -1.28681e-07)
(-4.7111e-09 0 -1.89919e-07)
(-7.41589e-09 0 -2.6818e-07)
(-1.1016e-08 0 -3.67176e-07)
(-1.57297e-08 0 -4.90998e-07)
(-2.18107e-08 0 -6.44086e-07)
(-2.95467e-08 0 -8.31108e-07)
(-3.92584e-08 0 -1.05674e-06)
(-5.12993e-08 0 -1.32532e-06)
(-6.60536e-08 0 -1.64034e-06)
(-8.39361e-08 0 -2.00374e-06)
(-1.05394e-07 0 -2.41491e-06)
(-1.30915e-07 0 -2.86942e-06)
(-1.61052e-07 0 -3.35724e-06)
(-1.96452e-07 0 -3.86052e-06)
(-2.37971e-07 0 -4.35077e-06)
(-2.87246e-07 0 -4.7854e-06)
(-3.4288e-07 0 -5.10497e-06)
(-4.21161e-07 0 -5.22672e-06)
(-5.18805e-07 0 -5.02207e-06)
(-6.39774e-07 0 -4.33682e-06)
(-7.9599e-07 0 -2.96997e-06)
(-1.00358e-06 0 -6.58589e-07)
(-1.28016e-06 0 2.92991e-06)
(-1.64618e-06 0 8.20635e-06)
(-2.12386e-06 0 1.56738e-05)
(-2.73352e-06 0 2.59365e-05)
(-3.48509e-06 0 3.97039e-05)
(-4.36174e-06 0 5.77853e-05)
(-5.30059e-06 0 8.10754e-05)
(-6.16143e-06 0 0.000110503)
(-6.68445e-06 0 0.000146962)
(-6.44566e-06 0 0.00019118)
(-4.80918e-06 0 0.000243542)
(-8.91246e-07 0 0.000303842)
(6.44588e-06 0 0.000370989)
(1.85406e-05 0 0.0004427)
(3.68006e-05 0 0.000515256)
(6.24695e-05 0 0.000583412)
(9.63085e-05 0 0.000640567)
(0.000138047 0 0.000679255)
(0.000186681 0 0.000692294)
(0.000238624 0 0.000672628)
(0.000291317 0 0.000614498)
(0.000337773 0 0.000514694)
(0.000371631 0 0.000369199)
(0.000384283 0 0.000172222)
(0.00036229 0 -8.79222e-05)
(0.000309984 0 -0.000436513)
(0.000193733 0 -0.000905671)
(2.71953e-05 0 -0.00153976)
(-0.000179627 0 -0.0023661)
(-0.0004133 0 -0.00337829)
(-0.00060367 0 -0.00452013)
(-0.000746758 0 -0.00570292)
(-0.00079576 0 -0.00678046)
(-0.000737325 0 -0.00759934)
(-0.000570557 0 -0.00804187)
(-0.000345262 0 -0.00810741)
(-8.18851e-05 0 -0.0078239)
(0.00018166 0 -0.00727619)
(0.000427631 0 -0.00654878)
(0.000648225 0 -0.00570501)
(0.000839505 0 -0.00478738)
(0.000998283 0 -0.00382054)
(0.00111941 0 -0.00281569)
(0.00119409 0 -0.00177451)
(0.00120767 0 -0.000692254)
(0.00113688 0 0.000442604)
(0.000961538 0 0.0016406)
(0.000633823 0 0.00290466)
(0.000117772 0 0.00427949)
(-0.000638288 0 0.00577998)
(-0.001681 0 0.00743372)
(-0.00304336 0 0.00926495)
(-0.00473954 0 0.0112951)
(-0.0067588 0 0.0135408)
(1.33659e-11 0 -1.24036e-08)
(-3.0818e-09 0 -4.13523e-08)
(-8.09039e-09 0 -7.6946e-08)
(-1.58376e-08 0 -1.2282e-07)
(-2.66287e-08 0 -1.81937e-07)
(-4.12922e-08 0 -2.57533e-07)
(-6.08534e-08 0 -3.5319e-07)
(-8.6541e-08 0 -4.72879e-07)
(-1.19784e-07 0 -6.20922e-07)
(-1.62209e-07 0 -8.01875e-07)
(-2.15629e-07 0 -1.02031e-06)
(-2.82018e-07 0 -1.28048e-06)
(-3.63463e-07 0 -1.58582e-06)
(-4.62087e-07 0 -1.93828e-06)
(-5.7993e-07 0 -2.33733e-06)
(-7.18777e-07 0 -2.7787e-06)
(-8.79927e-07 0 -3.25265e-06)
(-1.06388e-06 0 -3.74182e-06)
(-1.26998e-06 0 -4.21831e-06)
(-1.49628e-06 0 -4.64005e-06)
(-1.7387e-06 0 -4.94533e-06)
(-1.98956e-06 0 -5.04821e-06)
(-2.24673e-06 0 -4.83838e-06)
(-2.48975e-06 0 -4.1534e-06)
(-2.69014e-06 0 -2.79163e-06)
(-2.8257e-06 0 -4.92144e-07)
(-2.8592e-06 0 3.07268e-06)
(-2.7395e-06 0 8.30545e-06)
(-2.39668e-06 0 1.56989e-05)
(-1.73759e-06 0 2.58385e-05)
(-6.35163e-07 0 3.9402e-05)
(1.09263e-06 0 5.71508e-05)
(3.6958e-06 0 7.99003e-05)
(7.52029e-06 0 0.000108472)
(1.30455e-05 0 0.000143611)
(2.09079e-05 0 0.000185863)
(3.19265e-05 0 0.000235399)
(4.71041e-05 0 0.0002918)
(6.75907e-05 0 0.000353811)
(9.45875e-05 0 0.000419103)
(0.000129177 0 0.000484117)
(0.000172077 0 0.000544057)
(0.000223345 0 0.000593118)
(0.000282003 0 0.000624961)
(0.000346049 0 0.000633568)
(0.000412002 0 0.000613274)
(0.000475264 0 0.000559883)
(0.000529681 0 0.000471233)
(0.000568212 0 0.000345006)
(0.000582064 0 0.000177379)
(0.000561733 0 -4.35018e-05)
(0.000486497 0 -0.00033551)
(0.000346238 0 -0.000739632)
(0.000128232 0 -0.00131097)
(-0.000165521 0 -0.00208994)
(-0.000526252 0 -0.00308396)
(-0.000892112 0 -0.00425277)
(-0.00124859 0 -0.00549785)
(-0.00153665 0 -0.00667274)
(-0.00171865 0 -0.00760615)
(-0.00178102 0 -0.0081486)
(-0.00172285 0 -0.00826551)
(-0.00160708 0 -0.0080216)
(-0.00145962 0 -0.00747789)
(-0.0013062 0 -0.00673968)
(-0.00115802 0 -0.00587785)
(-0.00102205 0 -0.00493762)
(-0.000902592 0 -0.00394339)
(-0.000805117 0 -0.00290369)
(-0.000738394 0 -0.00181538)
(-0.00071768 0 -0.000665615)
(-0.000781695 0 0.000586702)
(-0.000909543 0 0.00187673)
(-0.00118827 0 0.00331821)
(-0.00165643 0 0.00490618)
(-0.00236334 0 0.00667125)
(-0.00335856 0 0.00862896)
(-0.00467669 0 0.0107862)
(-0.00632941 0 0.0131395)
(-0.00829514 0 0.0156724)
(-9.68758e-11 0 -1.01405e-08)
(-5.19019e-09 0 -3.55715e-08)
(-1.36049e-08 0 -6.78026e-08)
(-2.66294e-08 0 -1.09774e-07)
(-4.48961e-08 0 -1.64037e-07)
(-6.98618e-08 0 -2.33496e-07)
(-1.03319e-07 0 -3.21441e-07)
(-1.47415e-07 0 -4.31561e-07)
(-2.04651e-07 0 -5.67898e-07)
(-2.77883e-07 0 -7.34736e-07)
(-3.70304e-07 0 -9.36402e-07)
(-4.85401e-07 0 -1.17696e-06)
(-6.2687e-07 0 -1.45975e-06)
(-7.98469e-07 0 -1.78675e-06)
(-1.0038e-06 0 -2.15771e-06)
(-1.24598e-06 0 -2.56891e-06)
(-1.52718e-06 0 -3.01161e-06)
(-1.84802e-06 0 -3.46993e-06)
(-2.20674e-06 0 -3.91813e-06)
(-2.59838e-06 0 -4.3171e-06)
(-3.01333e-06 0 -4.60949e-06)
(-3.4349e-06 0 -4.71447e-06)
(-3.83722e-06 0 -4.52376e-06)
(-4.18981e-06 0 -3.89407e-06)
(-4.43274e-06 0 -2.63305e-06)
(-4.50042e-06 0 -4.89548e-07)
(-4.30569e-06 0 2.84484e-06)
(-3.72861e-06 0 7.74507e-06)
(-2.61114e-06 0 1.4674e-05)
(-7.54668e-07 0 2.41769e-05)
(2.09667e-06 0 3.68778e-05)
(6.2692e-06 0 5.34679e-05)
(1.21749e-05 0 7.46665e-05)
(2.03348e-05 0 0.000101179)
(3.13968e-05 0 0.00013361)
(4.61466e-05 0 0.000172346)
(6.55081e-05 0 0.000217401)
(9.05167e-05 0 0.000268236)
(0.000122252 0 0.000323555)
(0.000161715 0 0.000381137)
(0.000209653 0 0.000437746)
(0.00026632 0 0.000489174)
(0.000331232 0 0.00053048)
(0.000402904 0 0.00055642)
(0.000478795 0 0.000562076)
(0.000555173 0 0.000543152)
(0.000627067 0 0.000496713)
(0.000688504 0 0.0004215)
(0.000732484 0 0.000316791)
(0.000750512 0 0.000181021)
(0.000730915 0 7.75538e-06)
(0.000658125 0 -0.000221112)
(0.000510088 0 -0.000545235)
(0.000266415 0 -0.0010249)
(-8.45344e-05 0 -0.00171626)
(-0.000547882 0 -0.00264558)
(-0.00107137 0 -0.00379079)
(-0.00163951 0 -0.00506199)
(-0.00218139 0 -0.00631304)
(-0.00263464 0 -0.00736016)
(-0.00295225 0 -0.00804125)
(-0.00312014 0 -0.00828178)
(-0.00318356 0 -0.00808333)
(-0.0031599 0 -0.00757411)
(-0.00310714 0 -0.00684744)
(-0.00303677 0 -0.00598633)
(-0.00295942 0 -0.00504061)
(-0.00288084 0 -0.00403562)
(-0.00280595 0 -0.00297805)
(-0.00274223 0 -0.00186063)
(-0.00270203 0 -0.000665662)